% Model:              ModelMicPlate_Rh100um_hg10um_Refined_MaterialDefPolySilicon.mph
% Version:            COMSOL 6.3.0.420
% Date:               Aug 12 2025, 09:08
% Dimension:          1
% Nodes:              708
% Expressions:        1
% Description:        Line graph
% Arc length (m)          imag(p)
0                         -0.006709965163113573
4.2016806722688943E-7     -0.0067106975385907534
8.403361344537784E-7      -0.006711720551808735
1.260504201680668E-6      -0.006713034202767515
1.6806722689075569E-6     -0.006714638491467099
2.1008403361344462E-6     -0.006716533417907481
2.521008403361336E-6      -0.006718718982088667
2.941176470588225E-6      -0.006721195184010651
3.361344537815116E-6      -0.006724257679282845
3.781512605042006E-6      -0.006727736154506195
4.2016806722688975E-6     -0.006731630609680695
4.621848739495788E-6      -0.006735941044806352
5.0420168067226796E-6     -0.0067406674598831625
5.46218487394957E-6       -0.0067458098549111264
5.882352941176461E-6      -0.006751368229890244
6.302521008403353E-6      -0.006757341624769825
6.722689075630246E-6      -0.006763726775855568
7.1428571428571385E-6     -0.0067705236831474645
7.563025210084031E-6      -0.006777732346645522
7.983193277310924E-6      -0.006785352766349737
8.403361344537817E-6      -0.006793384942260109
8.823529411764708E-6      -0.006801828874376639
9.2436974789916E-6        -0.006810725547996249
9.66386554621849E-6       -0.006820044343556221
1.0084033613445381E-5     -0.006829785261056552
1.0504201680672271E-5     -0.006839948300497246
1.0924369747899162E-5     -0.006850533461878304
1.1344537815126054E-5     -0.0068615407451997215
1.1764705882352944E-5     -0.006872970150461502
1.2184873949579835E-5     -0.006884863674662886
1.2605042016806726E-5     -0.00689718872868782
1.3025210084033616E-5     -0.006909945312536301
1.3445378151260506E-5     -0.006923133426208332
1.3865546218487399E-5     -0.006936753069703912
1.4285714285714289E-5     -0.00695080424302304
1.470588235294118E-5      -0.006965286946165716
1.5126050420168068E-5     -0.006980226265027954
1.5546218487394955E-5     -0.006995623032206182
1.5966386554621844E-5     -0.007011477247700394
1.638655462184873E-5      -0.007027788911510597
1.6806722689075617E-5     -0.0070445580236367855
1.7226890756302507E-5     -0.007061784584078962
1.7647058823529393E-5     -0.007079468592837126
1.8067226890756286E-5     -0.007097544060545802
1.8487394957983176E-5     -0.007116107005518767
1.8907563025210073E-5     -0.007135157427756015
1.9327731092436962E-5     -0.007154695327257552
1.974789915966386E-5      -0.007174720704023375
2.0168067226890752E-5     -0.007195233558053485
2.0588235294117642E-5     -0.007216233889347881
2.1008403361344535E-5     -0.007237623212040181
2.1428571428571425E-5     -0.007259520421023666
2.1848739495798315E-5     -0.007281925516298329
2.2268907563025204E-5     -0.007304838497864178
2.2689075630252094E-5     -0.00732825936572121
2.3109243697478987E-5     -0.0073521881198694225
2.3529411764705877E-5     -0.00737662476030882
2.394957983193277E-5      -0.007401480951470378
2.436974789915966E-5      -0.007426878922501476
2.478991596638655E-5      -0.007452818673402112
2.521008403361344E-5      -0.007479300204172287
2.5630252100840332E-5     -0.0075063235148120026
2.6050420168067226E-5     -0.007533888605321257
2.6470588235294115E-5     -0.007561995475700051
2.6890756302521005E-5     -0.007590463050999217
2.7310924369747895E-5     -0.007619518706143173
2.7731092436974788E-5     -0.007649162441131912
2.8151260504201674E-5     -0.007679394255965442
2.8571428571428567E-5     -0.007710214150643758
2.899159663865546E-5      -0.007741622125166861
2.941176470588235E-5      -0.007773618179534752
2.983193277310924E-5      -0.007806087809041401
3.025210084033613E-5      -0.007839144248366188
3.067226890756302E-5      -0.007872787497509106
3.109243697478991E-5      -0.007907017556470162
3.1512605042016806E-5     -0.007941834425249351
3.1932773109243696E-5     -0.007977238103846674
3.2352941176470585E-5     -0.008013228592262132
3.2773109243697475E-5     -0.00804997955179353
3.3193277310924365E-5     -0.008087345829422788
3.3613445378151255E-5     -0.008125327425149903
3.4033613445378144E-5     -0.008163924338974877
3.445378151260504E-5      -0.00820313657089771
3.487394957983193E-5      -0.008242964120918404
3.529411764705882E-5      -0.008283406989036953
3.571428571428571E-5      -0.008324578242756592
3.61344537815126E-5       -0.008366451003491163
3.6554621848739496E-5     -0.008409025271240662
3.697478991596638E-5      -0.008452301046005094
3.7394957983193276E-5     -0.008496278327784462
3.781512605042017E-5      -0.008540957116578759
3.8235294117647055E-5     -0.008586337412387988
3.8655462184873945E-5     -0.008632453137305596
3.907563025210084E-5      -0.008679319061672477
3.949579831932773E-5      -0.008726935185488631
3.991596638655462E-5      -0.00877530150875406
4.033613445378151E-5      -0.008824418031468764
4.075630252100841E-5      -0.008874284753632741
4.11764705882353E-5       -0.00892490167524599
4.1596638655462194E-5     -0.008976458458928364
4.2016806722689084E-5     -0.009028837017379217
4.2436974789915967E-5     -0.009082037350598543
4.285714285714286E-5      -0.00913605945858635
4.327731092436975E-5      -0.009190903341342632
4.369747899159664E-5      -0.009246568998867393
4.411764705882353E-5      -0.009303056431160632
4.453781512605042E-5      -0.009360516781362797
4.495798319327731E-5      -0.009418913976708325
4.53781512605042E-5       -0.009478248017197212
4.5798319327731085E-5     -0.009538518902829463
4.621848739495798E-5      -0.009599726633605078
4.6638655462184864E-5     -0.009661871209524052
4.7058823529411754E-5     -0.00972495263058639
4.747899159663865E-5      -0.009789036764999884
4.789915966386554E-5      -0.009854180398645817
4.831932773109242E-5      -0.009920383531524187
4.873949579831932E-5      -0.009987646163634997
4.915966386554621E-5      -0.010055968294978249
4.95798319327731E-5       -0.010125349925553938
4.999999999999999E-5      -0.010195791055362065
5.042016806722688E-5      -0.010267348394118756
5.0840336134453775E-5     -0.010340110912442352
5.1260504201680665E-5     -0.01041407861033285
5.1680672268907555E-5     -0.010489251487790254
5.210084033613445E-5      -0.010565629544814562
5.252100840336134E-5      -0.010643212781405774
5.294117647058823E-5      -0.010722001197563889
5.336134453781512E-5      -0.010802048967065832
5.378151260504201E-5      -0.010883481202166912
5.420168067226891E-5      -0.010966297902867126
5.462184873949579E-5      -0.01105049906916648
5.5042016806722686E-5     -0.011136084701064971
5.546218487394958E-5      -0.011223054798562598
5.5882352941176466E-5     -0.011311409361659358
5.6302521008403355E-5     -0.011401198719584924
5.6722689075630245E-5     -0.01149259679569272
5.714285714285714E-5      -0.011585603589982741
5.7563025210084025E-5     -0.011680219102454998
5.798319327731092E-5      -0.01177644333310948
5.840336134453782E-5      -0.011874276281946193
5.88235294117647E-5       -0.011973717948965137
5.92436974789916E-5       -0.012074802533592367
5.966386554621848E-5      -0.012177781762200026
6.008403361344538E-5      -0.01228265563478811
6.050420168067226E-5      -0.012389424151356625
6.0924369747899156E-5     -0.012498087311905569
6.134453781512605E-5      -0.012608645116434936
6.176470588235294E-5      -0.012721097564944737
6.218487394957983E-5      -0.012835434570903506
6.260504201680672E-5      -0.012952039166542893
6.302521008403361E-5      -0.01307091135186289
6.34453781512605E-5       -0.013192051126863506
6.386554621848739E-5      -0.01331545849154474
6.428571428571429E-5      -0.013441133445906583
6.470588235294117E-5      -0.013569075989949045
6.512605042016805E-5      -0.013699178765273622
6.554621848739495E-5      -0.013832046894815674
6.596638655462185E-5      -0.013967680378575195
6.638655462184873E-5      -0.014106079216552197
6.680672268907563E-5      -0.014247243408746672
6.722689075630252E-5      -0.014391172955158618
6.76470588235294E-5       -0.014537867855788042
6.806722689075629E-5      -0.014687043631855919
6.848739495798319E-5      -0.014839658871999131
6.890756302521008E-5      -0.014995713576217668
6.932773109243696E-5      -0.015155207744511538
6.974789915966386E-5      -0.015318141376880742
7.016806722689076E-5      -0.015484514473325274
7.058823529411764E-5      -0.015654327033845134
7.100840336134452E-5      -0.015827065489814895
7.142857142857142E-5      -0.016004141041378175
7.184873949579832E-5      -0.016185553688534964
7.22689075630252E-5       -0.016371303431285268
7.26890756302521E-5       -0.01656139026962909
7.310924369747899E-5      -0.01675581420356642
7.352941176470588E-5      -0.01695457523309727
7.394957983193276E-5      -0.01715708744389683
7.436974789915967E-5      -0.017365108920423363
7.478991596638655E-5      -0.017578639662676858
7.521008403361343E-5      -0.017797679670657332
7.563025210084034E-5      -0.01802222894436477
7.605042016806723E-5      -0.018252287483799184
7.647058823529412E-5      -0.018487855288960565
7.689075630252102E-5      -0.018728815603222898
7.73109243697479E-5       -0.018976532469370602
7.773109243697479E-5      -0.019231005887403667
7.815126050420167E-5      -0.01949223585732211
7.857142857142857E-5      -0.01976022237912592
7.899159663865546E-5      -0.0200349654528151
7.941176470588235E-5      -0.02031646507838965
7.983193277310923E-5      -0.020610069677903044
8.025210084033613E-5      -0.020911211526340984
8.067226890756302E-5      -0.02121989062370346
8.10924369747899E-5       -0.021536106969990476
8.151260504201682E-5      -0.02185986056520204
8.19327731092437E-5       -0.022191151409338146
8.23529411764706E-5       -0.02252997950239879
8.277310924369749E-5      -0.02288754750051058
8.319327731092437E-5      -0.02325547581830051
8.361344537815127E-5      -0.02363376445576857
8.403361344537815E-5      -0.02402241341291478
8.445378151260505E-5      -0.024421422689739132
8.487394957983195E-5      -0.024830792286241625
8.529411764705883E-5      -0.025250522202422254
8.571428571428573E-5      -0.02568627280758251
8.613445378151261E-5      -0.026137341750178563
8.655462184873949E-5      -0.026603729030210403
8.697478991596639E-5      -0.027085434647678045
8.739495798319329E-5      -0.02758245860258148
8.781512605042018E-5      -0.028094800894920707
8.823529411764706E-5      -0.028622461524695726
8.865546218487395E-5      -0.029168582961554345
8.907563025210084E-5      -0.02973613471048807
8.949579831932774E-5      -0.03032511677149688
8.991596638655461E-5      -0.030935529144580802
9.033613445378152E-5      -0.031567371829739836
9.075630252100842E-5      -0.03222064482697396
9.11764705882353E-5       -0.032895348136283184
9.15966386554622E-5       -0.03360095277002215
9.201680672268908E-5      -0.03433857402099451
9.243697478991596E-5      -0.035108211889200255
9.285714285714286E-5      -0.03590986637463941
9.327731092436976E-5      -0.036743537477311954
9.369747899159665E-5      -0.03760922519721789
9.411764705882353E-5      -0.038506929534357234
9.453781512605042E-5      -0.03944904619364007
9.495798319327731E-5      -0.04043545094151989
9.53781512605042E-5       -0.041466143777996664
9.57983193277311E-5       -0.04254112470307043
9.621848739495799E-5      -0.043660393716741144
9.663865546218487E-5      -0.04482395081900885
9.705882352941177E-5      -0.04603179600987352
9.747899159663867E-5      -0.04727273588612453
9.789915966386555E-5      -0.04855110399450405
9.831932773109245E-5      -0.049866900335012024
9.873949579831933E-5      -0.05122012490764851
9.915966386554623E-5      -0.0526107777124135
9.957983193277312E-5      -0.054038858749306966
1.0E-4                    -0.05550436801832892
1.004264392324094E-4      -0.05700965283029176
1.0085287846481877E-4     -0.05851716158400359
1.0127931769722815E-4     -0.060026894279464366
1.0170575692963754E-4     -0.061538850916674145
1.0213219616204692E-4     -0.06305303149563293
1.025586353944563E-4      -0.06456943601634067
1.0298507462686569E-4     -0.0660880644787974
1.0341151385927508E-4     -0.06760436208319558
1.0383795309168445E-4     -0.06910917226383245
1.0426439232409383E-4     -0.07060249502070799
1.0469083155650321E-4     -0.07208433035382224
1.0511727078891259E-4     -0.0735546782631752
1.0554371002132197E-4     -0.07501353874876683
1.0597014925373135E-4     -0.07646091181059718
1.0639658848614073E-4     -0.07789668497736098
1.0682302771855012E-4     -0.07931888827815209
1.0724946695095948E-4     -0.08072752171297044
1.0767590618336888E-4     -0.0821225852818161
1.0810234541577824E-4     -0.08350407898468906
1.0852878464818763E-4     -0.08487200282158927
1.0895522388059701E-4     -0.08622635679251678
1.093816631130064E-4      -0.08757404037896048
1.0980810234541578E-4     -0.08891046169012813
1.1023454157782515E-4     -0.0902356207260197
1.1066098081023454E-4     -0.09154951748663526
1.1108742004264393E-4     -0.09285215197197477
1.115138592750533E-4      -0.09414352418203822
1.1194029850746269E-4     -0.09542363411682563
1.1236673773987208E-4     -0.09669396320257079
1.1279317697228145E-4     -0.09795396969011744
1.1321961620469083E-4     -0.09920365357946552
1.1364605543710021E-4     -0.10044301487061508
1.1407249466950959E-4     -0.10167205356356612
1.1449893390191897E-4     -0.10289076965831859
1.1492537313432836E-4     -0.10409916315487255
1.1535181236673775E-4     -0.10529788986843036
1.1577825159914712E-4     -0.10648728382961253
1.162046908315565E-4      -0.10766734503841902
1.1663113006396588E-4     -0.10883807349484982
1.1705756929637526E-4     -0.10999946919890502
1.1748400852878464E-4     -0.11115153215058451
1.1791044776119402E-4     -0.11229426234988836
1.1833688699360342E-4     -0.11342697636132512
1.187633262260128E-4      -0.11455061650959472
1.1918976545842218E-4     -0.11566518279469719
1.1961620469083157E-4     -0.11677067521663252
1.2004264392324095E-4     -0.11786709377540075
1.2046908315565034E-4     -0.11895443847100183
1.2089552238805972E-4     -0.12003270930343579
1.2132196162046911E-4     -0.12110344122960738
1.2174840085287848E-4     -0.12216529801223026
1.2217484008528786E-4     -0.12321827965130443
1.2260127931769724E-4     -0.12426238614682991
1.2302771855010662E-4     -0.1252976174988067
1.23454157782516E-4       -0.12632397370723475
1.2388059701492538E-4     -0.12734145477211414
1.2430703624733477E-4     -0.12835151633173933
1.2473347547974415E-4     -0.1293533451731832
1.2515991471215353E-4     -0.13034694129644575
1.255863539445629E-4      -0.1313323047015269
1.260127931769723E-4      -0.13230943538842682
1.2643923240938167E-4     -0.1332783333571453
1.2686567164179105E-4     -0.1342389986076825
1.2729211087420043E-4     -0.13519094690551312
1.2771855010660981E-4     -0.13613521733578432
1.281449893390192E-4      -0.13707180989849602
1.2857142857142858E-4     -0.13800072459364832
1.2899786780383796E-4     -0.13892196142124125
1.2942430703624734E-4     -0.13983552038127464
1.2985074626865672E-4     -0.14074140147374867
1.302771855010661E-4      -0.1416389534280353
1.3070362473347548E-4     -0.14252898202601488
1.3113006396588486E-4     -0.1434114872676874
1.3155650319829424E-4     -0.14428646915305288
1.3198294243070362E-4     -0.14515392768211136
1.32409381663113E-4       -0.14601386285486273
1.3283582089552239E-4     -0.14686627467130708
1.3326226012793177E-4     -0.14771181729472116
1.3368869936034115E-4     -0.148550112885361
1.3411513859275053E-4     -0.14938116144322666
1.345415778251599E-4      -0.15020496296831812
1.349680170575693E-4      -0.15102151746063536
1.3539445628997867E-4     -0.15183082492017838
1.3582089552238805E-4     -0.15263288534694722
1.3624733475479743E-4     -0.15342790501902356
1.3667377398720682E-4     -0.15421609445740794
1.371002132196162E-4      -0.15499745366210044
1.3752665245202558E-4     -0.155771982633101
1.3795309168443496E-4     -0.15653968137040963
1.3837953091684434E-4     -0.1573005498740263
1.3880597014925372E-4     -0.1580545881439511
1.392324093816631E-4      -0.15880207359054174
1.3965884861407248E-4     -0.15954293654398843
1.4008528784648186E-4     -0.16027717700429112
1.4051172707889124E-4     -0.16100479497144976
1.4093816631130063E-4     -0.16172579044546448
1.4136460554371E-4        -0.1624401634263351
1.417910447761194E-4      -0.1631479139140618
1.422174840085288E-4      -0.16384938209404606
1.4264392324093815E-4     -0.16454461869216094
1.4307036247334753E-4     -0.16523362370840647
1.4349680170575694E-4     -0.16591639714278264
1.4392324093816635E-4     -0.1665929389952895
1.443496801705757E-4      -0.16726324926592695
1.447761194029851E-4      -0.16792732795469506
1.452025586353945E-4      -0.16858505462426776
1.4562899786780387E-4     -0.16923682878736204
1.4605543710021325E-4     -0.1698826504439778
1.4648187633262263E-4     -0.17052251959411516
1.4690831556503201E-4     -0.1711564362377741
1.473347547974414E-4      -0.17178440037495454
1.4776119402985075E-4     -0.17240641200565657
1.4818763326226013E-4     -0.1730225034170823
1.486140724946695E-4      -0.1736328765099298
1.490405117270789E-4      -0.17423753128419917
1.4946695095948827E-4     -0.17483646773989028
1.4989339019189766E-4     -0.17542968587700328
1.5031982942430704E-4     -0.17601718569553804
1.5074626865671642E-4     -0.1765989671954946
1.511727078891258E-4      -0.1771753851619627
1.5159914712153518E-4     -0.17774631603026375
1.5202558635394456E-4     -0.1783117598003977
1.5245202558635394E-4     -0.17887171647236452
1.5287846481876332E-4     -0.17942618604616434
1.533049040511727E-4      -0.17997516852179696
1.5373134328358208E-4     -0.18051866389926252
1.5415778251599147E-4     -0.18105690140037506
1.5458422174840087E-4     -0.1815899681068044
1.5501066098081023E-4     -0.18211786401855054
1.5543710021321964E-4     -0.1826405891356135
1.5586353944562902E-4     -0.18315814345799333
1.5628997867803837E-4     -0.1836705269856899
1.5671641791044778E-4     -0.1841777397187033
1.5714285714285716E-4     -0.18467976452069426
1.5756929637526654E-4     -0.18517685747499835
1.5799573560767592E-4     -0.1856690185816155
1.584221748400853E-4      -0.18615624784054577
1.5884861407249468E-4     -0.18663854525178916
1.5927505330490407E-4     -0.1871159108153456
1.5970149253731345E-4     -0.18758834453121517
1.6012793176972283E-4     -0.18805576573671062
1.605543710021322E-4      -0.18851853003263425
1.609808102345416E-4      -0.18897663741898615
1.6140724946695097E-4     -0.18943008789576626
1.6183368869936035E-4     -0.1898788814629746
1.6226012793176973E-4     -0.19032301812061114
1.6268656716417911E-4     -0.19076249786867597
1.631130063965885E-4      -0.1911971664477362
1.6353944562899788E-4     -0.19162734747026086
1.6396588486140726E-4     -0.19205304093624992
1.6439232409381664E-4     -0.19247424684570336
1.6481876332622602E-4     -0.19289096519862128
1.652452025586354E-4      -0.1933031959950035
1.6567164179104478E-4     -0.1937109392348502
1.6609808102345416E-4     -0.1941146287618394
1.6652452025586354E-4     -0.19451400944041125
1.6695095948827292E-4     -0.1949090812705657
1.673773987206823E-4      -0.19529984425230273
1.6780383795309169E-4     -0.1956862983856225
1.6823027718550107E-4     -0.19606844367052478
1.6865671641791045E-4     -0.1964462801070097
1.6908315565031983E-4     -0.19681991440033134
1.695095948827292E-4      -0.19718955668988072
1.699360341151386E-4      -0.1975552069756578
1.7036247334754797E-4     -0.19791686525766253
1.7078891257995735E-4     -0.19827453153589508
1.7121535181236673E-4     -0.19862820581035523
1.7164179104477612E-4     -0.19897788808104316
1.720682302771855E-4      -0.199323607595528
1.7249466950959488E-4     -0.19966544627120372
1.7292110874200426E-4     -0.20000340410807022
1.7334754797441364E-4     -0.2003374811061275
1.7377398720682302E-4     -0.20066767726537568
1.742004264392324E-4      -0.2009939925858146
1.7462686567164178E-4     -0.20131642706744438
1.7505330490405116E-4     -0.2016353493181893
1.7547974413646055E-4     -0.20195064897845091
1.7590618336886993E-4     -0.20226232604822922
1.763326226012793E-4      -0.2025703805275242
1.767590618336887E-4      -0.20287481241633593
1.7718550106609807E-4     -0.20317562171466427
1.7761194029850745E-4     -0.20347280842250937
1.7803837953091683E-4     -0.20376622953833268
1.784648187633262E-4      -0.20405625494934035
1.788912579957356E-4      -0.20434288465553235
1.7931769722814497E-4     -0.20462611865690866
1.7974413646055436E-4     -0.20490595695346944
1.8017057569296374E-4     -0.20518239954521444
1.8059701492537312E-4     -0.20545544643214386
1.810234541577825E-4      -0.20572511374453303
1.8144989339019188E-4     -0.20599152420552894
1.8187633262260126E-4     -0.20625467781513154
1.8230277185501064E-4     -0.20651457457334085
1.8272921108742002E-4     -0.20677121448015695
1.831556503198294E-4      -0.20702459753557967
1.8358208955223879E-4     -0.20727472373960917
1.8400852878464817E-4     -0.2075216686074961
1.8443496801705755E-4     -0.20776557155085928
1.8486140724946693E-4     -0.20800643256969864
1.852878464818763E-4      -0.20824425166401422
1.857142857142857E-4      -0.2084790288338061
1.8614072494669507E-4     -0.20871076407907407
1.8656716417910445E-4     -0.2089394573998183
1.8699360341151383E-4     -0.20916514503284378
1.8742004264392321E-4     -0.20938793740718192
1.878464818763326E-4      -0.2096078345228327
1.8827292110874198E-4     -0.2098248363797961
1.8869936034115136E-4     -0.21003894297807224
1.8912579957356074E-4     -0.2102501543176609
1.8955223880597012E-4     -0.21045847039856225
1.899786780383795E-4      -0.2106640918000503
1.904051172707889E-4      -0.2108669882246284
1.9083155650319826E-4     -0.21106715967229653
1.9125799573560764E-4     -0.21126460614305473
1.9168443496801702E-4     -0.21145932763690303
1.9211087420042643E-4     -0.2116513241538413
1.9253731343283581E-4     -0.21184059569386968
1.929637526652452E-4      -0.21202719256776204
1.9339019189765455E-4     -0.21221128534868672
1.9381663113006393E-4     -0.21239287403664367
1.942430703624733E-4      -0.21257195863163297
1.9466950959488272E-4     -0.21274853913365466
1.9509594882729207E-4     -0.21292261554270858
1.9552238805970145E-4     -0.21309418785879486
1.9594882729211084E-4     -0.21326293942852553
1.9637526652452024E-4     -0.2134293478117842
1.968017057569296E-4      -0.21359341300857088
1.97228144989339E-4       -0.21375513501888557
1.9765458422174841E-4     -0.21391451384272836
1.980810234541578E-4      -0.21407154948009915
1.9850746268656718E-4     -0.21422624193099798
1.9893390191897656E-4     -0.2143787526819967
1.9936034115138594E-4     -0.21452897709768753
1.9978678038379532E-4     -0.21467691517807036
2.002132196162047E-4      -0.21482256692314528
2.0063965884861408E-4     -0.21496593233291234
2.0106609808102346E-4     -0.21510701140737132
2.0149253731343284E-4     -0.21524580414652245
2.0191897654584222E-4     -0.21538256843606823
2.023454157782516E-4      -0.21551727501151877
2.0277185501066093E-4     -0.21564992387287396
2.0319829424307034E-4     -0.21578051502013382
2.0362473347547972E-4     -0.21590904845329847
2.0405117270788908E-4     -0.2160355241723677
2.0447761194029846E-4     -0.21615994217734172
2.0490405117270784E-4     -0.21628225287556208
2.0533049040511725E-4     -0.21640262971707594
2.057569296375266E-4      -0.21652107270188334
2.06183368869936E-4       -0.21663758182998427
2.0660980810234542E-4     -0.21675215710137885
2.070362473347548E-4      -0.21686479851606683
2.0746268656716418E-4     -0.21697550607404845
2.0788912579957356E-4     -0.21708434453723224
2.0831556503198294E-4     -0.2171913960024719
2.087420042643923E-4      -0.21729666046976734
2.091684434968017E-4      -0.21740013793911855
2.0959488272921106E-4     -0.21750182841052573
2.1002132196162044E-4     -0.21760173188398857
2.1044776119402982E-4     -0.21769984835950734
2.108742004264392E-4      -0.21779619407893455
2.1130063965884858E-4     -0.21789087859867987
2.1172707889125793E-4     -0.2179839019187432
2.1215351812366734E-4     -0.21807526403912464
2.1257995735607672E-4     -0.2181649649598242
2.130063965884861E-4      -0.21825300468084177
2.1343283582089549E-4     -0.21833938320217744
2.1385927505330487E-4     -0.21842422433081807
2.1428571428571422E-4     -0.218507519377793
2.147121535181236E-4      -0.21858926834310233
2.1513859275053298E-4     -0.21866947122674596
2.155650319829424E-4      -0.21874812802872406
2.1599147121535174E-4     -0.21882523874903648
2.1641791044776113E-4     -0.21890080338768325
2.168443496801705E-4      -0.21897494659811512
2.172707889125799E-4      -0.21904768050317003
2.1769722814498927E-4     -0.21911900510284804
2.1812366737739865E-4     -0.21918892039714918
2.1855010660980803E-4     -0.21925742638607348
2.1897654584221744E-4     -0.21932452306962077
2.1940298507462682E-4     -0.21939021044779122
2.1982942430703623E-4     -0.21945454588586955
2.2025586353944558E-4     -0.21951759109189145
2.2068230277185494E-4     -0.219579346065857
2.2110874200426437E-4     -0.21963981080776615
2.2153518123667375E-4     -0.21969898531761894
2.2196162046908313E-4     -0.21975686959541532
2.2238805970149251E-4     -0.2198134636411554
2.228144989339019E-4      -0.21986883029042384
2.2324093816631128E-4     -0.21992302138307032
2.2366737739872063E-4     -0.21997603691909484
2.2409381663113E-4        -0.22002787689849732
2.245202558635394E-4      -0.22007854132127785
2.2494669509594877E-4     -0.22012803018743637
2.2537313432835815E-4     -0.22017634349697293
2.2579957356076756E-4     -0.22022349566710744
2.2622601279317692E-4     -0.22026959538869198
2.2665245202558627E-4     -0.22031464266172662
2.270788912579957E-4      -0.22035863748621132
2.275053304904051E-4      -0.22040157986214615
2.2793176972281447E-4     -0.22044346978953097
2.2835820895522385E-4     -0.2204843072683659
2.2878464818763323E-4     -0.22052400137365455
2.292110874200426E-4      -0.220562746438621
2.29637526652452E-4       -0.2206005424632652
2.3006396588486137E-4     -0.2206373894475872
2.3049040511727075E-4     -0.22067328739158704
2.3091684434968014E-4     -0.22070823629526465
2.3134328358208952E-4     -0.22074223615862004
2.3176972281449892E-4     -0.22077536138565335
2.3219616204690828E-4     -0.2208076016038344
2.3262260127931766E-4     -0.220838956813163
2.3304904051172707E-4     -0.22086942701363926
2.3347547974413645E-4     -0.22089901220526326
2.3390191897654586E-4     -0.2209277123880348
2.3432835820895524E-4     -0.22095552756195405
2.3475479744136462E-4     -0.22098253189995967
2.3518123667377397E-4     -0.22100878044780586
2.3560767590618333E-4     -0.22103427320549257
2.3603411513859274E-4     -0.22105901017301982
2.364605543710021E-4      -0.22108299135038773
2.3688699360341147E-4     -0.2211062167375961
2.3731343283582085E-4     -0.22112868633464505
2.3773987206823026E-4     -0.22115036960173334
2.381663113006396E-4      -0.2211713660568919
2.38592750533049E-4       -0.22119167570012072
2.390191897654584E-4      -0.22121129853141983
2.3944562899786778E-4     -0.22123023455078933
2.3987206823027716E-4     -0.22124848375822898
2.4029850746268655E-4     -0.22126604615373902
2.4072494669509595E-4     -0.22128299767324752
2.4115138592750533E-4     -0.22129934693732978
2.415778251599147E-4      -0.22131509394598572
2.420042643923241E-4      -0.22133023869921545
2.4243070362473348E-4     -0.221344781197019
2.4285714285714283E-4     -0.2213587214393962
2.432835820895522E-4      -0.22137205942634722
2.4371002132196162E-4     -0.2213848304362634
2.44136460554371E-4       -0.22139708338176012
2.445628997867804E-4      -0.22140881826283737
2.4498933901918976E-4     -0.22142003507949512
2.4541577825159915E-4     -0.2214307338317335
2.458422174840085E-4      -0.22144091451955233
2.462686567164179E-4      -0.22145057714295172
2.466950959488273E-4      -0.22145975661890435
2.4712153518123667E-4     -0.22146847977608647
2.47547974413646E-4       -0.221476746614498
2.4797441364605543E-4     -0.221484557134139
2.4840085287846476E-4     -0.2214919113350095
2.4882729211087414E-4     -0.22149880921710943
2.492537313432835E-4      -0.2215052507804388
2.496801705756929E-4      -0.2215114079125056
2.501066098081023E-4      -0.2215171644416701
2.5053304904051166E-4     -0.22152252036793224
2.5095948827292104E-4     -0.2215274756912921
2.513859275053304E-4      -0.2215320304117498
2.518123667377398E-4      -0.22153618452930507
2.522388059701492E-4      -0.22153993804395808
2.5266524520255857E-4     -0.2215433613792645
2.5309168443496795E-4     -0.22154648682626096
2.5351812366737733E-4     -0.22154931438494752
2.5394456289978677E-4     -0.22155184405532405
2.543710021321961E-4      -0.22155407583739067
2.5479744136460553E-4     -0.2215560097311473
2.552238805970149E-4      -0.22155764573659403
2.556503198294243E-4      -0.22155894393019124
2.560767590618336E-4      -0.22155998868842283
2.56503198294243E-4       -0.22156078001128876
2.569296375266524E-4      -0.22156131789878902
2.5735607675906176E-4     -0.2215616023509237
2.5778251599147114E-4     -0.22156163336769266
2.582089552238805E-4      -0.22156141094909604
2.586353944562899E-4      -0.22156094279963587
2.590618336886993E-4      -0.2215602865329972
2.5948827292110867E-4     -0.22155944214917997
2.599147121535181E-4      -0.2215584096481842
2.6034115138592743E-4     -0.22155718903001
2.6076759061833686E-4     -0.2215557802946572
2.6119402985074624E-4     -0.22155418344212588
2.616204690831556E-4      -0.22155237710195516
2.62046908315565E-4       -0.22155042470763
2.624733475479744E-4      -0.2215483262591504
2.6289978678038377E-4     -0.22154608175651638
2.6332622601279315E-4     -0.221543691199728
2.6375266524520253E-4     -0.2215411545887851
2.641791044776119E-4      -0.22153847192368784
2.646055437100213E-4      -0.22153565925389426
2.650319829424307E-4      -0.22153274947492912
2.6545842217484E-4        -0.22152974258679237
2.6588486140724944E-4     -0.22152663858948404
2.6631130063965876E-4     -0.2215234374830042
2.6673773987206814E-4     -0.2215201392673527