% Model:              ModelMicPlate_Rh20um_hg5um_Refined_MaterialDefPolySilicon.mph
% Version:            COMSOL 6.3.0.335
% Date:               May 21 2025, 13:46
% Dimension:          1
% Nodes:              708
% Expressions:        1
% Description:        Line graph
% Arc length (m)          imag(p)
0                         0.019309334783358358
4.0816326530612243E-7     0.0193716488835355
8.163265306122445E-7      0.019426502436212505
1.224489795918367E-6      0.019473895441389364
1.632653061224489E-6      0.019513827899066097
2.0408163265306117E-6     0.019546299809242683
2.448979591836734E-6      0.019571311171919133
2.857142857142856E-6      0.019588861987095446
3.265306122448978E-6      0.019658723229653407
3.6734693877551007E-6     0.0197354446714182
4.0816326530612225E-6     0.019819026312389812
4.489795918367345E-6      0.019909468152568256
4.897959183673468E-6      0.020006770191953526
5.30612244897959E-6       0.02011093243054563
5.714285714285712E-6      0.020221954868344553
6.1224489795918346E-6     0.02034583565719407
6.530612244897958E-6      0.020482967920861357
6.9387755102040806E-6     0.0206333516593464
7.3469387755102015E-6     0.02079698687264922
7.755102040816326E-6      0.020973873560769803
8.163265306122448E-6      0.021164011723708156
8.571428571428571E-6      0.02136740136146427
8.979591836734694E-6      0.02160565844809803
9.387755102040816E-6      0.021871630482683934
9.795918367346939E-6      0.022165317465221972
1.020408163265306E-5      0.02248671939571217
1.0612244897959184E-5     0.022835836274154506
1.1020408163265308E-5     0.023212668100548978
1.1428571428571429E-5     0.0236172148748956
1.1836734693877552E-5     0.02396560499012168
1.2244897959183674E-5     0.024401170213747027
1.2653061224489795E-5     0.024923910545771626
1.3061224489795918E-5     0.025533825986195503
1.346938775510204E-5      0.02623091653501864
1.3877551020408165E-5     0.02701518219224104
1.4285714285714285E-5     0.027886622957862706
1.4693877551020408E-5     0.028842437319607426
1.510204081632653E-5      0.029999536680266344
1.5510204081632655E-5     0.031357921039839434
1.5918367346938776E-5     0.03291759039832674
1.63265306122449E-5       0.034678544755728236
1.6734693877551024E-5     0.03664078411204392
1.7142857142857145E-5     0.03880430846727379
1.755102040816327E-5      0.041372894584059544
1.795918367346939E-5      0.04429118145736265
1.8367346938775515E-5     0.04755916908718307
1.8775510204081636E-5     0.051176857473520854
1.9183673469387756E-5     0.05514424661637598
1.959183673469388E-5      0.059461336515748454
2.0E-5                    0.06412812717163827
2.042553191489362E-5      0.06915744194151109
2.0851063829787234E-5     0.07403371439090731
2.1276595744680852E-5     0.07875694451982694
2.1702127659574467E-5     0.08332713232826999
2.212765957446808E-5      0.08774427781623648
2.2553191489361703E-5     0.09200838098372632
2.2978723404255317E-5     0.09611944183073963
2.3404255319148935E-5     0.10009071530001395
2.382978723404255E-5      0.10397018440755433
2.4255319148936165E-5     0.10775784915336074
2.4680851063829783E-5     0.1114537095374332
2.51063829787234E-5       0.11505776555977174
2.5531914893617015E-5     0.1185700172203763
2.5957446808510633E-5     0.12199046451924692
2.638297872340425E-5      0.12529304055279922
2.6808510638297866E-5     0.12852702634824448
2.7234042553191484E-5     0.13169242190558267
2.7659574468085102E-5     0.13478922722481387
2.808510638297872E-5      0.13781744230593806
2.8510638297872334E-5     0.1407770671489552
2.8936170212765952E-5     0.14366810175386532
2.936170212765957E-5      0.1465149953967659
2.9787234042553185E-5     0.14930696370810045
3.02127659574468E-5       0.15204400668786894
3.063829787234042E-5      0.15472612433607139
3.106382978723404E-5      0.15735331665270783
3.148936170212765E-5      0.15992558363777817
3.191489361702127E-5      0.16244292529128251
3.2340425531914886E-5     0.16490438600399537
3.2765957446808504E-5     0.16731837272466957
3.319148936170212E-5      0.16968488545330512
3.361702127659574E-5      0.17200392418990199
3.404255319148936E-5      0.1742754889344603
3.4468085106382976E-5     0.17649957968697988
3.4893617021276594E-5     0.17867619644746088
3.531914893617021E-5      0.1808117974256982
3.574468085106383E-5      0.1829062550267418
3.617021276595744E-5      0.1849595692505916
3.659574468085106E-5      0.18697174009724768
3.702127659574468E-5      0.18894276756671008
3.744680851063829E-5      0.19087265165897865
3.7872340425531907E-5     0.19276139237405354
3.8297872340425525E-5     0.19461342628236802
3.8723404255319136E-5     0.19642937187305018
3.914893617021275E-5      0.1982092291461
3.957446808510637E-5      0.19995299810151757
3.999999999999998E-5      0.20166067873930282
4.04255319148936E-5       0.2033322710594557
4.085106382978722E-5      0.20496777506197628
4.127659574468084E-5      0.20657026933711994
4.1702127659574455E-5     0.20814098637317713
4.2127659574468066E-5     0.2096799261701479
4.255319148936169E-5      0.2111870887280322
4.29787234042553E-5       0.2126624740468302
4.340425531914893E-5      0.21410608212654164
4.382978723404254E-5      0.21551791296716666
4.4255319148936156E-5     0.21689968685409683
4.4680851063829774E-5     0.2182528915621182
4.5106382978723385E-5     0.2195775270912307
4.5531914893616997E-5     0.22087359344143442
4.5957446808510615E-5     0.22214109061272938
4.638297872340423E-5      0.22338001860511544
4.680851063829785E-5      0.22459037741859275
4.7234042553191475E-5     0.22577452388448024
4.765957446808508E-5      0.226932781886149
4.8085106382978704E-5     0.22806515142359882
4.851063829787232E-5      0.22917163249682987
4.893617021276594E-5      0.2302522251058422
4.936170212765956E-5      0.23130692925063562
4.9787234042553176E-5     0.23233574493121026
5.02127659574468E-5       0.23334047587896947
5.0638297872340406E-5     0.23432178044662239
5.1063829787234024E-5     0.235279658634169
5.148936170212764E-5      0.23621411044160928
5.191489361702126E-5      0.23712513586894332
5.234042553191487E-5      0.23801273491617098
5.276595744680849E-5      0.23887690758329236
5.319148936170211E-5      0.2397185510989924
5.3617021276595725E-5     0.24053874253091417
5.404255319148934E-5      0.24133748187905749
5.446808510638296E-5      0.24211476914342256
5.489361702127658E-5      0.24287060432400936
5.53191489361702E-5       0.2436049874208177
5.5744680851063815E-5     0.2443179184338478
5.617021276595743E-5      0.24501055080641923
5.6595744680851044E-5     0.24568335167725808
5.7021276595744655E-5     0.24633632104636435
5.744680851063827E-5      0.24696945891373814
5.7872340425531884E-5     0.2475827652793795
5.82978723404255E-5       0.2481762401432882
5.8723404255319114E-5     0.24874988350546443
5.914893617021274E-5      0.24930494311930707
5.9574468085106356E-5     0.24984170458676935
5.999999999999997E-5      0.25036016790785137
6.042553191489359E-5      0.250860333082553
6.085106382978722E-5      0.25134220011087444
6.127659574468083E-5      0.2518057689928155
6.170212765957445E-5      0.2522510397283762
6.212765957446806E-5      0.2526786782474871
6.255319148936169E-5      0.2530893841125405
6.297872340425529E-5      0.25348315732353643
6.340425531914891E-5      0.25385999788047486
6.382978723404252E-5      0.254219905783356
6.425531914893613E-5      0.25456288103217956
6.468085106382975E-5      0.2548889236269457
6.510638297872337E-5      0.2551985427236724
6.553191489361698E-5      0.25549234013512057
6.59574468085106E-5       0.25577031586129034
6.638297872340422E-5      0.25603246990218165
6.680851063829784E-5      0.2562788022577946
6.723404255319147E-5      0.25650931292812895
6.765957446808508E-5      0.256724001913185
6.80851063829787E-5       0.25692368423257955
6.851063829787231E-5      0.2571085589356073
6.893617021276593E-5      0.25727862602226803
6.936170212765955E-5      0.25743388549256185
6.978723404255316E-5      0.25757433734648894
7.021276595744679E-5      0.2576999815840489
7.06382978723404E-5       0.25781081820524204
7.106382978723402E-5      0.25790748094194516
7.148936170212763E-5      0.25799033091534557
7.191489361702124E-5      0.2580593681254434
7.234042553191486E-5      0.25811459257223857
7.276595744680848E-5      0.25815600425573126
7.31914893617021E-5       0.25818360317592115
7.361702127659572E-5      0.2581973893328085
7.404255319148934E-5      0.25819768858010606
7.446808510638294E-5      0.25818501949058753
7.489361702127655E-5      0.25815938206425276
7.531914893617019E-5      0.2581207763011018
7.574468085106379E-5      0.25806920220113483
7.617021276595741E-5      0.2580046597643516
7.659574468085102E-5      0.2579271489907522
7.702127659574463E-5      0.2578371742933749
7.744680851063826E-5      0.2577349723220541
7.787234042553187E-5      0.2576205430767897
7.82978723404255E-5       0.2574938865575819
7.87234042553191E-5       0.25735500276443046
7.914893617021272E-5      0.25720389169733554
7.957446808510634E-5      0.2570405533562971
7.999999999999997E-5      0.25686554378392396
8.042553191489356E-5      0.2566790508030058
8.085106382978717E-5      0.2564810744135425
8.12765957446808E-5       0.25627161461553416
8.170212765957441E-5      0.2560506714089808
8.212765957446802E-5      0.25581824479388227
8.255319148936163E-5      0.25557433477023866
8.297872340425526E-5      0.25531922927281725
8.340425531914888E-5      0.2550533315384385
8.38297872340425E-5       0.25477664156710245
8.425531914893612E-5      0.2544891593588091
8.468085106382974E-5      0.25419088491355857
8.510638297872335E-5      0.25388181823135064
8.553191489361698E-5      0.25356195931218545
8.59574468085106E-5       0.2532315635034878
8.638297872340422E-5      0.25289096560695157
8.680851063829783E-5      0.25254016562257686
8.723404255319144E-5      0.2521791635503635
8.765957446808508E-5      0.2518079593903117
8.808510638297869E-5      0.25142655314242124
8.85106382978723E-5       0.2510349448066923
8.893617021276592E-5      0.2506335696610274
8.936170212765952E-5      0.2502225616993194
8.978723404255313E-5      0.2498019209215681
9.021276595744674E-5      0.24937164732777364
9.063829787234035E-5      0.24893174091793607
9.106382978723398E-5      0.2484822016920552
9.148936170212759E-5      0.24802302965013118
9.191489361702122E-5      0.247554551888697
9.234042553191483E-5      0.2470770197184487
9.276595744680844E-5      0.24659043313938633
9.319148936170208E-5      0.24609479215150987
9.361702127659569E-5      0.24559009675481944
9.40425531914893E-5       0.2450763469493148
9.446808510638292E-5      0.24455354273499616
9.489361702127655E-5      0.24402186227815587
9.531914893617015E-5      0.24348163406056203
9.574468085106377E-5      0.2429328580822146
9.617021276595738E-5      0.2423755343431136
9.6595744680851E-5        0.24180966284325914
9.702127659574462E-5      0.24123524358265103
9.744680851063823E-5      0.24065227656128937
9.787234042553185E-5      0.2400610758213349
9.829787234042548E-5      0.239461793835194
9.872340425531908E-5      0.2388544306028665
9.914893617021271E-5      0.23823898612435254
9.957446808510633E-5      0.23761546039965215
9.999999999999995E-5      0.2369838534287651
1.0042553191489358E-4     0.23634416521169163
1.008510638297872E-4      0.2356967338799898
1.012765957446808E-4      0.23504170613736985
1.0170212765957441E-4     0.23437908198383176
1.0212765957446803E-4     0.2337088614193756
1.0255319148936166E-4     0.2330310444440014
1.0297872340425527E-4     0.23234563105770906
1.0340425531914888E-4     0.23165262126049863
1.038297872340425E-4      0.23095218557355213
1.0425531914893612E-4     0.23024461412520392
1.0468085106382971E-4     0.22952990691545397
1.0510638297872335E-4     0.2288080639443023
1.0553191489361695E-4     0.22807908521174897
1.0595744680851058E-4     0.22734297071779386
1.0638297872340419E-4     0.22659972046243704
1.068085106382978E-4      0.2258495096908696
1.0723404255319141E-4     0.22509256904570474
1.0765957446808503E-4     0.2243288985269425
1.0808510638297865E-4     0.22355849813458278
1.0851063829787227E-4     0.22278136786862573
1.0893617021276588E-4     0.2219975077290712
1.093617021276595E-4      0.22120691771591933
1.0978723404255313E-4     0.22040989956999052
1.1021276595744674E-4     0.21960655803706972
1.1063829787234035E-4     0.21879689311715683
1.1106382978723399E-4     0.21798090481025195
1.114893617021276E-4      0.2171585931163551
1.1191489361702123E-4     0.21632995803546615
1.1234042553191484E-4     0.21549499956758522
1.1276595744680846E-4     0.21465393358217638
1.1319148936170207E-4     0.21380696438941904
1.1361702127659569E-4     0.2129540919893131
1.140425531914893E-4      0.21209531638185858
1.1446808510638292E-4     0.21123063756705557
1.1489361702127652E-4     0.21036005554490392
1.1531914893617014E-4     0.20948357031540374
1.1574468085106377E-4     0.208601307796087
1.1617021276595738E-4     0.20771351639086671
1.1659574468085099E-4     0.20682019609974286
1.1702127659574462E-4     0.20592134692271546
1.1744680851063824E-4     0.20501696885978457
1.1787234042553185E-4     0.20410706191095004
1.1829787234042546E-4     0.203191626076212
1.1872340425531909E-4     0.20227090224372918
1.191489361702127E-4      0.20134500540374553
1.1957446808510631E-4     0.20041393555626105
1.1999999999999994E-4     0.19947769270127572
1.2042553191489355E-4     0.1985362768387896
1.2085106382978716E-4     0.19758968796880258
1.2127659574468078E-4     0.19663792609131475
1.2170212765957441E-4     0.19568124166978237
1.2212765957446802E-4     0.19471976127031507
1.2255319148936163E-4     0.19375348489291283
1.2297872340425524E-4     0.19278241253757566
1.2340425531914888E-4     0.19180654420430365
1.238297872340425E-4      0.19082587989309657
1.242553191489361E-4      0.18984041960395467
1.246808510638297E-4      0.1888502882527707
1.2510638297872332E-4     0.18785572243454537
1.2553191489361694E-4     0.1868567221492787
1.2595744680851055E-4     0.18585328739697077
1.2638297872340416E-4     0.1848454181776215
1.268085106382978E-4      0.18383311449123088
1.272340425531914E-4      0.18281637633779896
1.2765957446808505E-4     0.18179534895954225
1.2808510638297863E-4     0.1807702120138419
1.2851063829787224E-4     0.1797409655006979
1.2893617021276588E-4     0.17870760942011027
1.293617021276595E-4      0.17767014377207907
1.297872340425531E-4      0.17662856855660414
1.302127659574467E-4      0.17558288377368558
1.3063829787234032E-4     0.17453333204807558
1.3106382978723396E-4     0.17348000395250468
1.3148936170212755E-4     0.17242289948697295
1.3191489361702118E-4     0.17136201865148035
1.3234042553191482E-4     0.17029736144602695
1.3276595744680843E-4     0.16922892787061264
1.3319148936170205E-4     0.16815671792523748
1.3361702127659568E-4     0.1670808963391035
1.340425531914893E-4      0.16600164416397145
1.344680851063829E-4      0.1649189613998414
1.3489361702127652E-4     0.16383284804671336
1.3531914893617016E-4     0.1627433041045873
1.3574468085106377E-4     0.16165032957346318
1.3617021276595738E-4     0.16055392445334105
1.36595744680851E-4       0.1594541937827282
1.370212765957446E-4      0.1583513429938474
1.374468085106382E-4      0.15724537208669867
1.3787234042553182E-4     0.15613628106128202
1.3829787234042546E-4     0.15502406991759746
1.3872340425531907E-4     0.15390873865564492
1.3914893617021268E-4     0.15279028727542446
1.395744680851063E-4      0.15166891894335877
1.399999999999999E-4      0.150544733572215
1.4042553191489352E-4     0.1494177311619933
1.4085106382978716E-4     0.14828791171269354
1.4127659574468077E-4     0.14715527522431585
1.4170212765957438E-4     0.14601982169686006
1.42127659574468E-4       0.14488155113032633
1.4255319148936163E-4     0.143740648281986
1.429787234042552E-4      0.14259725249197255
1.4340425531914882E-4     0.14145136376028605
1.4382978723404246E-4     0.1403029820869265
1.4425531914893607E-4     0.13915210747189388
1.446808510638297E-4      0.13799873991518818
1.4510638297872332E-4     0.13684287941680942
1.4553191489361696E-4     0.13568461526702225
1.4595744680851054E-4     0.13452416152435615
1.4638297872340416E-4     0.13336151818881103
1.468085106382978E-4      0.13219668526038697
1.472340425531914E-4      0.131029662739084
1.4765957446808502E-4     0.129860450624902
1.4808510638297863E-4     0.12868904891784108
1.4851063829787224E-4     0.12751560232288214
1.4893617021276588E-4     0.12634024699186622
1.493617021276595E-4      0.12516298292479328
1.497872340425531E-4      0.12398381012166336
1.5021276595744674E-4     0.12280272858247653
1.5063829787234035E-4     0.1216197383072326
1.5106382978723396E-4     0.12043483929593177
1.5148936170212757E-4     0.1192482431389302
1.519148936170212E-4      0.11806003198862153
1.523404255319148E-4      0.11687020584500568
1.5276595744680843E-4     0.11567876470808273
1.5319148936170204E-4     0.1144857085778527
1.5361702127659563E-4     0.11329103745431549
1.5404255319148927E-4     0.11209475133747118
1.5446808510638288E-4     0.11089698266152044
1.548936170212765E-4      0.10969789999821747
1.553191489361701E-4      0.10849750334756217
1.557446808510637E-4      0.10729579270955461
1.5617021276595732E-4     0.10609276808419482
1.5659574468085093E-4     0.10488842947148269
1.5702127659574457E-4     0.1036827768714183
1.574468085106382E-4      0.10247590689859067
1.578723404255318E-4      0.10126799403335866
1.5829787234042543E-4     0.1000590382757223
1.5872340425531904E-4     0.09884903962568156
1.5914893617021266E-4     0.09763799808323652
1.595744680851063E-4      0.09642591364838705
1.599999999999999E-4      0.09521278632113327
1.6042553191489354E-4     0.09399880097938453
1.6085106382978715E-4     0.09278404182395092
1.6127659574468077E-4     0.09156850885483245
1.6170212765957438E-4     0.0903522020720291
1.62127659574468E-4       0.08913512147554092
1.6255319148936163E-4     0.08791726706536786
1.6297872340425524E-4     0.08669863884150994
1.6340425531914885E-4     0.08547939110673211
1.6382978723404246E-4     0.08425965738291548
1.642553191489361E-4      0.08303943767005999
1.646808510638297E-4      0.08181873196816568
1.6510638297872332E-4     0.08059754027723257
1.6553191489361693E-4     0.07937586259726057
1.6595744680851054E-4     0.07815369892824978
1.6638297872340415E-4     0.07693112719891854
1.668085106382978E-4      0.075708334808017
1.6723404255319138E-4     0.07448532175554518
1.6765957446808501E-4     0.07326208804150305
1.6808510638297863E-4     0.07203863366589065
1.6851063829787224E-4     0.0708149586287079
1.6893617021276588E-4     0.0695910629299549
1.693617021276595E-4      0.06836709291116844
1.697872340425531E-4      0.06714315204689028
1.702127659574467E-4      0.06591924033712042
1.7063829787234032E-4     0.06469535778185888
1.7106382978723396E-4     0.06347150438110566
1.7148936170212757E-4     0.06224768013486073
1.7191489361702118E-4     0.061023885043124115
1.7234042553191482E-4     0.05980029777750519
1.7276595744680843E-4     0.05857700643662825
1.7319148936170204E-4     0.05735401102049329
1.7361702127659565E-4     0.05613131152910033
1.7404255319148926E-4     0.05490890796244939
1.744680851063829E-4      0.05368680032054041
1.7489361702127651E-4     0.052464988603373446
1.7531914893617015E-4     0.05124356633574557
1.7574468085106374E-4     0.050022704427877714
1.7617021276595735E-4     0.04880240287976989
1.7659574468085099E-4     0.04758266169142209
1.770212765957446E-4      0.04636348086283435
1.774468085106382E-4      0.045144860394006614
1.7787234042553182E-4     0.04392680028493892
1.7829787234042543E-4     0.04270938675500354
1.7872340425531904E-4     0.04149277207707583
1.7914893617021265E-4     0.04027695625115578
1.795744680851063E-4      0.039061939277243385
1.7999999999999993E-4     0.03784772115533868
1.8042553191489351E-4     0.03663430188544162
1.8085106382978715E-4     0.035421681467552237
1.8127659574468076E-4     0.03421002736402901
1.8170212765957437E-4     0.03299941238285198
1.8212765957446799E-4     0.03178983652402113
1.825531914893616E-4      0.030581299787536462
1.829787234042552E-4      0.029373802173397995
1.8340425531914882E-4     0.0281673436816057
1.8382978723404243E-4     0.026961924312159605
1.8425531914893607E-4     0.025757674285914082
1.8468085106382968E-4     0.024554718584499792
1.851063829787233E-4      0.023353057207916732
1.8553191489361693E-4     0.022152690156164903
1.8595744680851054E-4     0.020953617429244318
1.8638297872340418E-4     0.019755839027154956
1.868085106382978E-4      0.01855935494989683
1.8723404255319143E-4     0.01736423411485932
1.8765957446808504E-4     0.016170640202176446
1.8808510638297862E-4     0.014978573211848216
1.8851063829787226E-4     0.013788033143874626
1.8893617021276585E-4     0.012599019998255679
1.8936170212765949E-4     0.011411533774991368
1.897872340425531E-4      0.0102255744740817
1.9021276595744673E-4     0.009041278098003728
1.9063829787234032E-4     0.007858729457222234
1.9106382978723393E-4     0.006677928551737221
1.9148936170212757E-4     0.005498875381548685
1.9191489361702115E-4     0.004321569946656631
1.923404255319148E-4      0.003146012247061053
1.927659574468084E-4      0.001972202282761956
1.93191489361702E-4       8.002943146195963E-4
1.9361702127659562E-4     -3.696301860945082E-4
1.9404255319148926E-4     -0.0015375712193803567
1.9446808510638287E-4     -0.0027035287852379512
1.9489361702127649E-4     -0.00386750288366729
1.953191489361701E-4      -0.005029493514668373
1.957446808510637E-4      -0.006189500678241202
1.9617021276595732E-4     -0.007347447434667776
1.9659574468085096E-4     -0.008503180660685294
1.9702127659574454E-4     -0.009656700356293757
1.9744680851063818E-4     -0.010808006521493168
1.978723404255318E-4      -0.011957099156283523
1.9829787234042543E-4     -0.013103978260664824
1.9872340425531904E-4     -0.014248643834637068
1.9914893617021268E-4     -0.015391015567607486
1.9957446808510626E-4     -0.01653096697388368
1.9999999999999987E-4     -0.017668498053465636
2.004255319148935E-4      -0.01880360880635336
2.0085106382978715E-4     -0.019936299232546858
2.0127659574468076E-4     -0.02106656933204612
2.0170212765957437E-4     -0.022194419104851155
2.02127659574468E-4       -0.023319700699833513
2.0255319148936162E-4     -0.024442352260819897
2.029787234042552E-4      -0.02556237378781031
2.0340425531914887E-4     -0.026679765280804738
2.0382978723404246E-4     -0.027794526739803205
2.042553191489361E-4      -0.02890665816480569
2.046808510638297E-4      -0.030016159555812202
2.0510638297872332E-4     -0.03112292389949163
2.0553191489361693E-4     -0.03222683848902873
2.0595744680851054E-4     -0.0333279033244235
2.0638297872340415E-4     -0.03442611840567596
2.0680851063829776E-4     -0.03552148373278609
2.0723404255319137E-4     -0.036613999305753875
2.0765957446808498E-4     -0.03770366512457936
2.080851063829786E-4      -0.03879042100208212
2.085106382978722E-4      -0.03987412956477951
2.0893617021276582E-4     -0.040954790812671546
2.0936170212765946E-4     -0.042032404745758235
2.097872340425531E-4      -0.04310697136403957
2.1021276595744668E-4     -0.044178490667515544
2.1063829787234032E-4     -0.04524696265618617
2.1106382978723393E-4     -0.04631226637149648
2.1148936170212754E-4     -0.047374334476369254
2.1191489361702115E-4     -0.04843316697080448
2.1234042553191476E-4     -0.04948876385480217
2.1276595744680837E-4     -0.05054112512836234
2.1319148936170198E-4     -0.05159025079148496
2.136170212765956E-4      -0.052636140844170044
2.140425531914892E-4      -0.0536786672742333
2.1446808510638282E-4     -0.05471775859071681
2.1489361702127643E-4     -0.05575341479362051
2.1531914893617004E-4     -0.056785635882944455
2.1574468085106365E-4     -0.05781442185868865
2.1617021276595726E-4     -0.05883977272085304
2.1659574468085087E-4     -0.059861688469437686
2.170212765957445E-4      -0.06088010678169984
2.1744680851063815E-4     -0.0618948988849094
2.1787234042553176E-4     -0.06290606477906635
2.1829787234042537E-4     -0.06391360446417071
2.1872340425531898E-4     -0.0649175179402225
2.1914893617021265E-4     -0.06591780520722167
2.1957446808510626E-4     -0.06691446626516824
2.199999999999999E-4      -0.06790742951051784
2.2042553191489348E-4     -0.0688965958926637
2.208510638297871E-4      -0.06988196541160578
2.2127659574468073E-4     -0.07086353806734415
2.2170212765957432E-4     -0.07184131385987877
2.2212765957446796E-4     -0.07281529278920962
2.2255319148936157E-4     -0.07378547485533672
2.229787234042552E-4      -0.07475173763378958
2.234042553191488E-4      -0.07571403053526789
2.238297872340424E-4      -0.07667235355977164
2.2425531914893604E-4     -0.07762670670730086
2.2468085106382965E-4     -0.07857708997785555
2.2510638297872326E-4     -0.07952350337143567
2.2553191489361687E-4     -0.08046594688804126
2.2595744680851048E-4     -0.08140433811613404
2.2638297872340412E-4     -0.08233858207386363
2.268085106382977E-4      -0.08326867876122995
2.2723404255319137E-4     -0.08419462817823309
2.2765957446808498E-4     -0.08511643032487305
2.280851063829786E-4      -0.08603408520114975
2.2851063829787223E-4     -0.08694759280706325
2.2893617021276587E-4     -0.0878569031795008
2.2936170212765948E-4     -0.08876190957353562
2.2978723404255307E-4     -0.08966261198916767
2.302127659574467E-4      -0.09055901042639698
2.3063829787234032E-4     -0.09145110488522355
2.3106382978723393E-4     -0.09233889536564735
2.3148936170212754E-4     -0.0932223818676684
2.3191489361702118E-4     -0.09410146720319788
2.3234042553191476E-4     -0.0949760988792061
2.3276595744680837E-4     -0.09584627689569306
2.3319148936170198E-4     -0.09671200125265877
2.336170212765956E-4      -0.09757327195010324
2.3404255319148923E-4     -0.09843008898802641
2.3446808510638284E-4     -0.09928245236642834
2.3489361702127648E-4     -0.10013027473875534
2.3531914893617007E-4     -0.10097348728392941
2.3574468085106368E-4     -0.10181209000195059
2.3617021276595732E-4     -0.10264608289281885
2.3659574468085093E-4     -0.10347546595653423
2.3702127659574454E-4     -0.10430023919309668
2.3744680851063818E-4     -0.10512040260250623
2.378723404255318E-4      -0.10593591642903806
2.382978723404254E-4      -0.10674667834163823
2.3872340425531898E-4     -0.10755268834030673
2.391489361702126E-4      -0.1083539464250436
2.3957446808510623E-4     -0.10915045259584885
2.3999999999999982E-4     -0.10994220685272242
2.4042553191489345E-4     -0.11072920919566435
2.4085106382978707E-4     -0.11151139652229143
2.412765957446807E-4      -0.11228870478220962
2.417021276595743E-4      -0.11306113397541889
2.4212765957446793E-4     -0.11382868410191925
2.4255319148936154E-4     -0.11459135516171078
2.4297872340425515E-4     -0.11534914715479333
2.434042553191488E-4      -0.11610206008116704
2.4382978723404243E-4     -0.11685000289920582
2.4425531914893604E-4     -0.117592938607646
2.4468085106382965E-4     -0.11833086720648758
2.4510638297872326E-4     -0.11906378869573052
2.4553191489361687E-4     -0.11979170307537493
2.4595744680851054E-4     -0.12051461034542069
2.4638297872340415E-4     -0.12123251050586786
2.4680851063829776E-4     -0.12194534863342918
2.4723404255319137E-4     -0.1226530540592918
2.47659574468085E-4       -0.1233556267834557
2.480851063829786E-4      -0.12405306680592086
2.4851063829787226E-4     -0.12474537412668736
2.4893617021276587E-4     -0.1254325487457551
2.493617021276595E-4      -0.12611459066312414
2.497872340425531E-4      -0.1267914629269407
2.502127659574467E-4      -0.12746309485180252
2.5063829787234026E-4     -0.12812948643770952
2.510638297872339E-4      -0.12879063768466176
2.5148936170212754E-4     -0.12944654859265925
2.5191489361702115E-4     -0.13009721916170192
2.5234042553191476E-4     -0.1307426493917898
2.5276595744680837E-4     -0.1313827714615394
2.53191489361702E-4       -0.13201755226975345
2.536170212765956E-4      -0.13264699181643194
2.540425531914892E-4      -0.13327109010157495
2.5446808510638287E-4     -0.13388984712518245
2.548936170212765E-4      -0.1345032628872544
2.553191489361701E-4      -0.13511133738779083
2.557446808510637E-4      -0.13571401677525177
2.561702127659573E-4      -0.13631125386757922
2.565957446808509E-4      -0.13690304866477315
2.570212765957446E-4      -0.13748940116683367
2.574468085106382E-4      -0.13807031137376075
2.578723404255318E-4      -0.13864577928555427
2.582978723404254E-4      -0.13921580490221436
2.587234042553191E-4      -0.1397803637468059
2.591489361702127E-4      -0.14033939395729886
2.595744680851063E-4      -0.1408928955336932
2.599999999999999E-4      -0.14144086847598894
2.6042553191489353E-4     -0.14198331278418613
2.6085106382978715E-4     -0.14252022845828471
2.6127659574468076E-4     -0.14305161549828468
2.6170212765957437E-4     -0.14357743235898543
2.62127659574468E-4       -0.14409764597991723
2.625531914893616E-4      -0.14461225636108016
2.629787234042552E-4      -0.14512126350247426
2.634042553191488E-4      -0.14562466740409946
2.638297872340424E-4      -0.14612246806595572
2.6425531914893604E-4     -0.14661466548804317
2.6468085106382965E-4     -0.14710121163201711
2.6510638297872326E-4     -0.14758208278483784
2.6553191489361687E-4     -0.14805727894650522
2.659574468085105E-4      -0.14852680011701944
2.663829787234041E-4      -0.14899064629638042
2.668085106382977E-4      -0.1494488174845881
2.672340425531913E-4      -0.14990131368164256
2.67659574468085E-4       -0.1503481179194938
2.680851063829786E-4      -0.1507891836282767
2.685106382978722E-4      -0.15122451080799126
2.6893617021276587E-4     -0.15165409945863748
2.693617021276595E-4      -0.1520779495802154
2.6978723404255314E-4     -0.1524960611727249
2.7021276595744675E-4     -0.15290843423616612
2.7063829787234037E-4     -0.15331504464560713
2.71063829787234E-4       -0.15371586939856235
2.714893617021276E-4      -0.15411090849503176
2.719148936170212E-4      -0.15450016193501542