% Model:              ModelMicPlate_Rh100um_hg10um_Refined_MaterialDefPolySilicon.mph
% Version:            COMSOL 6.3.0.335
% Date:               May 21 2025, 14:32
% Dimension:          1
% Nodes:              708
% Expressions:        1
% Description:        Line graph
% Arc length (m)          imag(p)
0                         -0.03467960678044937
4.2016806722688943E-7     -0.03468063344249805
8.403361344537784E-7      -0.03468190651990021
1.260504201680668E-6      -0.034683426012655845
1.6806722689075569E-6     -0.034685191920764975
2.1008403361344462E-6     -0.03468720424422758
2.521008403361336E-6      -0.03468946298304367
2.941176470588225E-6      -0.034691968137213244
3.361344537815116E-6      -0.0346951788893525
3.781512605042006E-6      -0.03469883080120781
4.2016806722688975E-6     -0.03470292387277915
4.621848739495788E-6      -0.03470745810406656
5.0420168067226796E-6     -0.034712433495070014
5.46218487394957E-6       -0.03471785004578951
5.882352941176461E-6      -0.03472370775622507
6.302521008403353E-6      -0.03472996989211319
6.722689075630246E-6      -0.03473666576731641
7.1428571428571385E-6     -0.03474379538183474
7.563025210084031E-6      -0.03475135873566818
7.983193277310924E-6      -0.03475935582881674
8.403361344537817E-6      -0.0347677866612804
8.823529411764708E-6      -0.034776651233059175
9.2436974789916E-6        -0.03478596918323279
9.66386554621849E-6       -0.03479573083186867
1.0084033613445381E-5     -0.03480593617896679
1.0504201680672271E-5     -0.03481658522452716
1.0924369747899162E-5     -0.034827677968549804
1.1344537815126054E-5     -0.03483921441103469
1.1764705882352944E-5     -0.03485119455198183
1.2184873949579835E-5     -0.03486363343582507
1.2605042016806726E-5     -0.03487652259570781
1.3025210084033616E-5     -0.03488986203163004
1.3445378151260506E-5     -0.03490365174359177
1.3865546218487399E-5     -0.034917891731593
1.4285714285714289E-5     -0.034932581995633726
1.470588235294118E-5      -0.03494772253571394
1.5126050420168068E-5     -0.034963312883284435
1.5546218487394955E-5     -0.03497937839235932
1.5966386554621844E-5     -0.034995919062938564
1.638655462184873E-5      -0.035012934895022205
1.6806722689075617E-5     -0.03503042588861023
1.7226890756302507E-5     -0.03504839204370263
1.7647058823529393E-5     -0.03506683336029941
1.8067226890756286E-5     -0.035085636272199405
1.8487394957983176E-5     -0.035104945536566526
1.8907563025210073E-5     -0.035124761153400776
1.9327731092436962E-5     -0.035145083122702155
1.974789915966386E-5      -0.03516591144447066
2.0168067226890752E-5     -0.03518724611870629
2.0588235294117642E-5     -0.035209087145409046
2.1008403361344535E-5     -0.03523126414782821
2.1428571428571425E-5     -0.03525396611191678
2.1848739495798315E-5     -0.03527719303767474
2.2268907563025204E-5     -0.0353009449251021
2.2689075630252094E-5     -0.035325221774198855
2.3109243697478987E-5     -0.035350023584965
2.3529411764705877E-5     -0.03537535035740055
2.394957983193277E-5      -0.03540103444459087
2.436974789915966E-5      -0.03542727455096529
2.478991596638655E-5      -0.03545407067652378
2.521008403361344E-5      -0.03548142282126639
2.5630252100840332E-5     -0.03550933098519308
2.6050420168067226E-5     -0.035537795168303854
2.6470588235294115E-5     -0.03556681537059873
2.6890756302521005E-5     -0.035596110624245225
2.7310924369747895E-5     -0.035626009375325465
2.7731092436974788E-5     -0.03565651162383943
2.8151260504201674E-5     -0.03568761736978715
2.8571428571428567E-5     -0.0357193266131686
2.899159663865546E-5      -0.03575163935398379
2.941176470588235E-5      -0.03578455559223271
2.983193277310924E-5      -0.03581781883867574
3.025210084033613E-5      -0.03585168262287865
3.067226890756302E-5      -0.03588614694484142
3.109243697478991E-5      -0.035921211804564084
3.1512605042016806E-5     -0.03595687720204663
3.1932773109243696E-5     -0.03599314313728904
3.2352941176470585E-5     -0.03603000961029133
3.2773109243697475E-5     -0.036067524432399085
3.3193277310924365E-5     -0.03610565556611989
3.3613445378151255E-5     -0.03614440301145371
3.4033613445378144E-5     -0.036183766768400585
3.445378151260504E-5      -0.03622374683696048
3.487394957983193E-5      -0.03626434321713343
3.529411764705882E-5      -0.0363055559089194
3.571428571428571E-5      -0.03634740422421824
3.61344537815126E-5       -0.03638995188735627
3.6554621848739496E-5     -0.03643319889833346
3.697478991596638E-5      -0.03647714525714985
3.7394957983193276E-5     -0.036521790963805416
3.781512605042017E-5      -0.03656713601830016
3.8235294117647055E-5     -0.03661318042063409
3.8655462184873945E-5     -0.036659813293963305
3.907563025210084E-5      -0.036707197543658546
3.949579831932773E-5      -0.03675533316971979
3.991596638655462E-5      -0.03680422017214707
4.033613445378151E-5      -0.036853858550940366
4.075630252100841E-5      -0.03690424830609969
4.11764705882353E-5       -0.036955389437625025
4.1596638655462194E-5     -0.03700729351136725
4.2016806722689084E-5     -0.03706001229622558
4.2436974789915967E-5     -0.03711354579219999
4.285714285714286E-5      -0.03716789399929052
4.327731092436975E-5      -0.037223056917497145
4.369747899159664E-5      -0.03727903454681987
4.411764705882353E-5      -0.03733582688725868
4.453781512605042E-5      -0.03739341709455188
4.495798319327731E-5      -0.037451931362091
4.53781512605042E-5       -0.037511369689876006
4.5798319327731085E-5     -0.037571732077906934
4.621848739495798E-5      -0.03763301852618379
4.6638655462184864E-5     -0.03769522903470654
4.7058823529411754E-5     -0.0377583636034752
4.747899159663865E-5      -0.037822295496686725
4.789915966386554E-5      -0.03788727116964459
4.831932773109242E-5      -0.037953290622348757
4.873949579831932E-5      -0.03802035385479927
4.915966386554621E-5      -0.03808846086699611
4.95798319327731E-5       -0.038157611658939265
4.999999999999999E-5      -0.03822780623062875
5.042016806722688E-5      -0.038298869284080654
5.0840336134453775E-5     -0.038371119110044115
5.1260504201680665E-5     -0.03844455570851909
5.1680672268907555E-5     -0.03851917907950562
5.210084033613445E-5      -0.0385949892230037
5.252100840336134E-5      -0.0386719861390133
5.294117647058823E-5      -0.038750169827534445
5.336134453781512E-5      -0.038829312351687136
5.378151260504201E-5      -0.03890981844137151
5.420168067226891E-5      -0.03899168809658754
5.462184873949579E-5      -0.03907492131733524
5.5042016806722686E-5     -0.03915951810361463
5.546218487394958E-5      -0.03924547845542567
5.5882352941176466E-5     -0.03933280237276839
5.6302521008403355E-5     -0.03942119495543241
5.6722689075630245E-5     -0.03951117189952481
5.714285714285714E-5      -0.03960273320504556
5.7563025210084025E-5     -0.03969587887199469
5.798319327731092E-5      -0.039790608900372185
5.840336134453782E-5      -0.039886923290178046
5.88235294117647E-5       -0.03998482204141227
5.92436974789916E-5       -0.04008391944510764
5.966386554621848E-5      -0.04018487963983324
6.008403361344538E-5      -0.04028770262558903
6.050420168067226E-5      -0.04039238840237505
6.0924369747899156E-5     -0.04049893697019129
6.134453781512605E-5      -0.04060734832903773
6.176470588235294E-5      -0.04071762247891438
6.218487394957983E-5      -0.040829248633914225
6.260504201680672E-5      -0.04094309206589174
6.302521008403361E-5      -0.04105915277484689
6.34453781512605E-5       -0.041177430760779704
6.386554621848739E-5      -0.04129792602369019
6.428571428571429E-5      -0.04142063856357831
6.470588235294117E-5      -0.04154556838044409
6.512605042016805E-5      -0.04167203174568539
6.554621848739495E-5      -0.041801167982585125
6.596638655462185E-5      -0.041932977091143284
6.638655462184873E-5      -0.042067459071359885
6.680672268907563E-5      -0.04220461392323493
6.722689075630252E-5      -0.042344441646768406
6.76470588235294E-5       -0.04248694224196032
6.806722689075629E-5      -0.04263119773412628
6.848739495798319E-5      -0.04277871622622106
6.890756302521008E-5      -0.04292949771824463
6.932773109243696E-5      -0.04308354221019701
6.974789915966386E-5      -0.0432408497020782
7.016806722689076E-5      -0.04340142019388821
7.058823529411764E-5      -0.043565253685627005
7.100840336134452E-5      -0.04373114794570587
7.142857142857142E-5      -0.04390106565518742
7.184873949579832E-5      -0.044075006814071636
7.22689075630252E-5       -0.044252971422358525
7.26890756302521E-5       -0.0444349594800481
7.310924369747899E-5      -0.04462097098714034
7.352941176470588E-5      -0.044811005943635254
7.394957983193276E-5      -0.04500363840214824
7.436974789915967E-5      -0.045201277762234184
7.478991596638655E-5      -0.045403924023893066
7.521008403361343E-5      -0.04561157718712491
7.563025210084034E-5      -0.045824237251929724
7.605042016806723E-5      -0.04604190421830747
7.647058823529412E-5      -0.04626457808625819
7.689075630252102E-5      -0.046490851619355816
7.73109243697479E-5       -0.046723263322105794
7.773109243697479E-5      -0.04696181319450809
7.815126050420167E-5      -0.047206501236562726
7.857142857142857E-5      -0.0474573274482697
7.899159663865546E-5      -0.04771429182962901
7.941176470588235E-5      -0.04797739438064065
7.983193277310923E-5      -0.04824839963819352
8.025210084033613E-5      -0.04852646815821034
8.067226890756302E-5      -0.04881159994069108
8.10924369747899E-5       -0.04910379498563577
8.151260504201682E-5      -0.0494030532930444
8.19327731092437E-5       -0.04970937486291696
8.23529411764706E-5       -0.05002275969525346
8.277310924369749E-5      -0.05034938078272743
8.319327731092437E-5      -0.05068535685196855
8.361344537815127E-5      -0.05103068790297679
8.403361344537815E-5      -0.05138537393575217
8.445378151260505E-5      -0.0517494149502947
8.487394957983195E-5      -0.05212281094660435
8.529411764705883E-5      -0.05250556192468114
8.571428571428573E-5      -0.052901119738850214
8.613445378151261E-5      -0.053309900658895876
8.655462184873949E-5      -0.05373190468481805
8.697478991596639E-5      -0.054167131816616816
8.739495798319329E-5      -0.054615582054292136
8.781512605042018E-5      -0.055077255397844006
8.823529411764706E-5      -0.05555215184727244
8.865546218487395E-5      -0.056042493439264526
8.907563025210084E-5      -0.05654937346557165
8.949579831932774E-5      -0.05707279192619376
8.991596638655461E-5      -0.05761274882113091
9.033613445378152E-5      -0.0581692441503831
9.075630252100842E-5      -0.05874227791395027
9.11764705882353E-5       -0.05933185011183249
9.15966386554622E-5       -0.059947516183299604
9.201680672268908E-5      -0.06058126705964573
9.243697478991596E-5      -0.06123310274087079
9.285714285714286E-5      -0.06190302322697488
9.327731092436976E-5      -0.06259102851795795
9.369747899159665E-5      -0.06329711861382
9.411764705882353E-5      -0.06402129351456103
9.453781512605042E-5      -0.06477955976544325
9.495798319327731E-5      -0.06555551086486361
9.53781512605042E-5       -0.06634914681282203
9.57983193277311E-5       -0.06716046760931857
9.621848739495799E-5      -0.06798947325435321
9.663865546218487E-5      -0.06883616374792596
9.705882352941177E-5      -0.0697005390900368
9.747899159663867E-5      -0.0705867532849252
9.789915966386555E-5      -0.07148914091135616
9.831932773109245E-5      -0.07240770196932966
9.873949579831933E-5      -0.07334243645884575
9.915966386554623E-5      -0.0742933443799044
9.957983193277312E-5      -0.0752604257325056
1.0E-4                    -0.07624368051664936
1.004264392324094E-4      -0.07725113901669707
1.0085287846481877E-4     -0.07826710664321962
1.0127931769722815E-4     -0.07929158339621703
1.0170575692963754E-4     -0.0803245692756893
1.0213219616204692E-4     -0.08136606428163647
1.025586353944563E-4      -0.08241606841405846
1.0298507462686569E-4     -0.08347458167295534
1.0341151385927508E-4     -0.08453040124164486
1.0383795309168445E-4     -0.08558528494032433
1.0426439232409383E-4     -0.0866392327689938
1.0469083155650321E-4     -0.0876922447276532
1.0511727078891259E-4     -0.08874432081630261
1.0554371002132197E-4     -0.08979546103494196
1.0597014925373135E-4     -0.09084566538357129
1.0639658848614073E-4     -0.09188382208405448
1.0682302771855012E-4     -0.09291376013566716
1.0724946695095948E-4     -0.09393547953840936
1.0767590618336888E-4     -0.09494898029228105
1.0810234541577824E-4     -0.09595426239728229
1.0852878464818763E-4     -0.096951325853413
1.0895522388059701E-4     -0.09794017066067323
1.093816631130064E-4      -0.09891698620633375
1.0980810234541578E-4     -0.09988292443264157
1.1023454157782515E-4     -0.10083798533959668
1.1066098081023454E-4     -0.10178216892719907
1.1108742004264393E-4     -0.10271547519544877
1.115138592750533E-4      -0.10363790414434573
1.1194029850746269E-4     -0.10454945577389001
1.1236673773987208E-4     -0.10544887360379698
1.1279317697228145E-4     -0.10633666742943591
1.1321961620469083E-4     -0.10721283725080683
1.1364605543710021E-4     -0.10807738306790973
1.1407249466950959E-4     -0.10893030488074464
1.1449893390191897E-4     -0.10977160268931148
1.1492537313432836E-4     -0.11060127649361032
1.1535181236673775E-4     -0.11141828561614135
1.1577825159914712E-4     -0.11222369454184651
1.162046908315565E-4      -0.11301750327072571
1.1663113006396588E-4     -0.11379971180277908
1.1705756929637526E-4     -0.11457032013800658
1.1748400852878464E-4     -0.1153293282764081
1.1791044776119402E-4     -0.1160767362179838
1.1833688699360342E-4     -0.11681163582441678
1.187633262260128E-4      -0.11753462664949071
1.1918976545842218E-4     -0.1182457086932056
1.1961620469083157E-4     -0.1189448819555614
1.2004264392324095E-4     -0.11963214643655819
1.2046908315565034E-4     -0.12030750213619587
1.2089552238805972E-4     -0.12097094905447453
1.2132196162046911E-4     -0.12162402266629033
1.2174840085287848E-4     -0.12226498156682454
1.2217484008528786E-4     -0.12289382575607724
1.2260127931769724E-4     -0.12351055523404836
1.2302771855010662E-4     -0.12411517000073799
1.23454157782516E-4       -0.124707670056146
1.2388059701492538E-4     -0.1252880554002725
1.2430703624733477E-4     -0.1258577332997485
1.2473347547974415E-4     -0.12641566668945212
1.2515991471215353E-4     -0.1269618555693833
1.255863539445629E-4      -0.12749629993954215
1.260127931769723E-4      -0.1280189997999286
1.2643923240938167E-4     -0.1285299551505426
1.2686567164179105E-4     -0.12902916599138425
1.2729211087420043E-4     -0.12951558407043479
1.2771855010660981E-4     -0.1299905611007112
1.281449893390192E-4      -0.1304540970822135
1.2857142857142858E-4     -0.13090619201494166
1.2899786780383796E-4     -0.13134684589889584
1.2942430703624734E-4     -0.13177605873407577
1.2985074626865672E-4     -0.13219383052048167
1.302771855010661E-4      -0.13259943046054867
1.3070362473347548E-4     -0.13299335115591127
1.3113006396588486E-4     -0.1333755926065695
1.3155650319829424E-4     -0.13374615481252333
1.3198294243070362E-4     -0.1341050377737728
1.32409381663113E-4       -0.13445224149031787
1.3283582089552239E-4     -0.13478776596215858
1.3326226012793177E-4     -0.1351125372042196
1.3368869936034115E-4     -0.13542582012933074
1.3411513859275053E-4     -0.13572761473749198
1.345415778251599E-4      -0.13601792102870336
1.349680170575693E-4      -0.13629673900296485
1.3539445628997867E-4     -0.13656406866027643
1.3582089552238805E-4     -0.13681991000063815
1.3624733475479743E-4     -0.13706405910113598
1.3667377398720682E-4     -0.1372969805254899
1.371002132196162E-4      -0.1375186742736999
1.3752665245202558E-4     -0.13772914034576603
1.3795309168443496E-4     -0.13792837874168828
1.3837953091684434E-4     -0.1381163894614666
1.3880597014925372E-4     -0.13829317250510104
1.392324093816631E-4      -0.13845886947876918
1.3965884861407248E-4     -0.138613405112525
1.4008528784648186E-4     -0.13875677940636855
1.4051172707889124E-4     -0.13888899236029978
1.4093816631130063E-4     -0.13901004397431874
1.4136460554371E-4        -0.13911993424842534
1.417910447761194E-4      -0.1392186631826197
1.422174840085288E-4      -0.13930638474834117
1.4264392324093815E-4     -0.13938328555954055
1.4307036247334753E-4     -0.1394493656162178
1.4349680170575694E-4     -0.13950462491837304
1.4392324093816635E-4     -0.13954906346600623
1.443496801705757E-4      -0.13958268125911727
1.447761194029851E-4      -0.13960547829770628
1.452025586353945E-4      -0.13961710053150345
1.4562899786780387E-4     -0.13961812597502263
1.4605543710021325E-4     -0.13960855462826385
1.4648187633262263E-4     -0.13958838649122707
1.4690831556503201E-4     -0.13955762156391238
1.473347547974414E-4      -0.13951625984631966
1.4776119402985075E-4     -0.139464301338449
1.4818763326226013E-4     -0.1394017490451624
1.486140724946695E-4      -0.13932879355115002
1.490405117270789E-4      -0.13924543485641194
1.4946695095948827E-4     -0.13915167296094816
1.4989339019189766E-4     -0.13904750786475867
1.5031982942430704E-4     -0.13893293956784342
1.5074626865671642E-4     -0.1388079680702025
1.511727078891258E-4      -0.1386731152097538
1.5159914712153518E-4     -0.13852813131792774
1.5202558635394456E-4     -0.1383730163947242
1.5245202558635394E-4     -0.13820777044014326
1.5287846481876332E-4     -0.13803239345418494
1.533049040511727E-4      -0.13784688543684914
1.5373134328358208E-4     -0.13765124638813597
1.5415778251599147E-4     -0.1374456775879343
1.5458422174840087E-4     -0.13723039502862402
1.5501066098081023E-4     -0.13700539871020506
1.5543710021321964E-4     -0.1367706886326774
1.5586353944562902E-4     -0.13652626479604116
1.5628997867803837E-4     -0.1362721272002962
1.5671641791044778E-4     -0.1360082758454426
1.5714285714285716E-4     -0.13573462181400245
1.5756929637526654E-4     -0.13545157263901209
1.5799573560767592E-4     -0.13515912832047156
1.584221748400853E-4      -0.13485728885838083
1.5884861407249468E-4     -0.13454605425273994
1.5927505330490407E-4     -0.13422542450354882
1.5970149253731345E-4     -0.13389539961080757
1.6012793176972283E-4     -0.13355590816092736
1.605543710021322E-4      -0.13320742546926564
1.609808102345416E-4      -0.13284995153582246
1.6140724946695097E-4     -0.13248348636059787
1.6183368869936035E-4     -0.1321080299435918
1.6226012793176973E-4     -0.13172358228480424
1.6268656716417911E-4     -0.13133014338423527
1.631130063965885E-4      -0.1309278516127862
1.6353944562899788E-4     -0.13051681688526712
1.6396588486140726E-4     -0.13009703920167803
1.6439232409381664E-4     -0.1296685185620189
1.6481876332622602E-4     -0.1292312549662898
1.652452025586354E-4      -0.1287852484144906
1.6567164179104478E-4     -0.1283304989066214
1.6609808102345416E-4     -0.12786793732443041
1.6652452025586354E-4     -0.12739707893573318
1.6695095948827292E-4     -0.12691792374052976
1.673773987206823E-4      -0.12643047173882013
1.6780383795309169E-4     -0.12593472293060437
1.6823027718550107E-4     -0.1254306773158823
1.6865671641791045E-4     -0.12491833489465412
1.6908315565031983E-4     -0.12439754894155304
1.695095948827292E-4      -0.12386905753370078
1.699360341151386E-4      -0.12333286067109737
1.7036247334754797E-4     -0.12278895835374282
1.7078891257995735E-4     -0.12223735058163715
1.7121535181236673E-4     -0.12167803735478028
1.7164179104477612E-4     -0.12111101867317228
1.720682302771855E-4      -0.120536411807497
1.7249466950959488E-4     -0.11995431302349141
1.7292110874200426E-4     -0.11936472232115561
1.7334754797441364E-4     -0.11876763970048951
1.7377398720682302E-4     -0.11816306516149319
1.742004264392324E-4      -0.11755099870416659
1.7462686567164178E-4     -0.11693144032850974
1.7505330490405116E-4     -0.11630521582763999
1.7547974413646055E-4     -0.11567210425161871
1.7590618336886993E-4     -0.11503210560044588
1.763326226012793E-4      -0.11438521987412155
1.767590618336887E-4      -0.11373144707264575
1.7718550106609807E-4     -0.11307078719601837
1.7761194029850745E-4     -0.11240324024423949
1.7803837953091683E-4     -0.11172848000235645
1.784648187633262E-4      -0.11104737220427179
1.788912579957356E-4      -0.11035991684998549
1.7931769722814497E-4     -0.10966611393949759
1.7974413646055436E-4     -0.1089659634728081
1.8017057569296374E-4     -0.10825946544991694
1.8059701492537312E-4     -0.10754661987082421
1.810234541577825E-4      -0.10682740817302161
1.8144989339019188E-4     -0.10610224519550542
1.8187633262260126E-4     -0.10537113093827563
1.8230277185501064E-4     -0.1046340654013322
1.8272921108742002E-4     -0.10389104858467521
1.831556503198294E-4      -0.10314208048830459
1.8358208955223879E-4     -0.10238716111222036
1.8400852878464817E-4     -0.10162644541370998
1.8443496801705755E-4     -0.10086031759621847
1.8486140724946693E-4     -0.10008877765974578
1.852878464818763E-4      -0.09931182560429196
1.857142857142857E-4      -0.09852946142985702
1.8614072494669507E-4     -0.0977416851364409
1.8656716417910445E-4     -0.09694849672404364
1.8699360341151383E-4     -0.09615007891664619
1.8742004264392321E-4     -0.0953467021196013
1.878464818763326E-4      -0.09453836633290907
1.8827292110874198E-4     -0.09372507155656942
1.8869936034115136E-4     -0.0929068177905824
1.8912579957356074E-4     -0.09208360503494796
1.8955223880597012E-4     -0.09125543328966614
1.899786780383795E-4      -0.09042279561393315
1.904051172707889E-4      -0.08958569652837355
1.9083155650319826E-4     -0.08874413603298732
1.9125799573560764E-4     -0.08789811412777447
1.9168443496801702E-4     -0.08704763081273505
1.9211087420042643E-4     -0.08619268608786895
1.9253731343283581E-4     -0.08533327995317627
1.929637526652452E-4      -0.08447002953478333
1.9339019189765455E-4     -0.0836028448631075
1.9381663113006393E-4     -0.08273172593814875
1.942430703624733E-4      -0.08185667275990711
1.9466950959488272E-4     -0.0809776853283826
1.9509594882729207E-4     -0.08009476364357518
1.9552238805970145E-4     -0.07920790770548487
1.9594882729211084E-4     -0.0783174156265324
1.9637526652452024E-4     -0.07742358781478162
1.968017057569296E-4      -0.07652642427023253
1.97228144989339E-4       -0.07562592499288509
1.9765458422174841E-4     -0.0747220899827394
1.980810234541578E-4      -0.07381491923979536
1.9850746268656718E-4     -0.072904412764053
1.9893390191897656E-4     -0.07199069652480039
1.9936034115138594E-4     -0.0710741587997486
1.9978678038379532E-4     -0.07015479958889763
2.002132196162047E-4      -0.06923261889224751
2.0063965884861408E-4     -0.06830761670979824
2.0106609808102346E-4     -0.06737979304154976
2.0149253731343284E-4     -0.06644914788750214
2.0191897654584222E-4     -0.06551565979921964
2.023454157782516E-4      -0.06457993411203297
2.0277185501066093E-4     -0.0636419708259421
2.0319829424307034E-4     -0.06270176994094706
2.0362473347547972E-4     -0.06175933145704787
2.0405117270788908E-4     -0.06081465537424448
2.0447761194029846E-4     -0.059867741692536926
2.0490405117270784E-4     -0.05891855626139086
2.0533049040511725E-4     -0.057967600979049835
2.057569296375266E-4      -0.0570148758455139
2.06183368869936E-4       -0.05606038086078303
2.0660980810234542E-4     -0.055104116024857236
2.070362473347548E-4      -0.0541460813377365
2.0746268656716418E-4     -0.05318627679942084
2.0788912579957356E-4     -0.05222496434638438
2.0831556503198294E-4     -0.051262409203306616
2.087420042643923E-4      -0.05029861137018754
2.091684434968017E-4      -0.04933357084702714
2.0959488272921106E-4     -0.04836728763382546
2.1002132196162044E-4     -0.047399761730582454
2.1044776119402982E-4     -0.04643099313729814
2.108742004264392E-4      -0.04546121176058948
2.1130063965884858E-4     -0.04449070465445173
2.1172707889125793E-4     -0.04351947181888489
2.1215351812366734E-4     -0.04254751325388895
2.1257995735607672E-4     -0.04157482895946391
2.130063965884861E-4      -0.04060141893560978
2.1343283582089549E-4     -0.039627283182326556
2.1385927505330487E-4     -0.038652705366850976
2.1428571428571422E-4     -0.03767791443345329
2.147121535181236E-4      -0.036702910382133476
2.1513859275053298E-4     -0.035727693212891556
2.155650319829424E-4      -0.03475226292572754
2.1599147121535174E-4     -0.0337766195206414
2.1641791044776113E-4     -0.03280076299763316
2.168443496801705E-4      -0.03182495529076183
2.172707889125799E-4      -0.030849446208309428
2.1769722814498927E-4     -0.029874235750275924
2.1812366737739865E-4     -0.028899323916661324
2.1855010660980803E-4     -0.027924710707465647
2.1897654584221744E-4     -0.026950396122688867
2.1940298507462682E-4     -0.025976380162331003
2.1982942430703623E-4     -0.025002945604449527
2.2025586353944558E-4     -0.02403030179157377
2.2068230277185494E-4     -0.023058448723703728
2.2110874200426437E-4     -0.022087386400839418
2.2153518123667375E-4     -0.021117114822980832
2.2196162046908313E-4     -0.020147633990127957
2.2238805970149251E-4     -0.019178943902280813
2.228144989339019E-4      -0.01821132108216866
2.2324093816631128E-4     -0.017244960120067807
2.2366737739872063E-4     -0.016279861015978253
2.2409381663113E-4        -0.015316023769900001
2.245202558635394E-4      -0.014353448381833056
2.2494669509594877E-4     -0.013392134851777406
2.2537313432835815E-4     -0.012432083179733058
2.2579957356076756E-4     -0.011474128187905492
2.2622601279317692E-4     -0.010517780948548985
2.2665245202558627E-4     -0.009563041461663539
2.270788912579957E-4      -0.00860990972724915
2.275053304904051E-4      -0.0076583857453058285
2.2793176972281447E-4     -0.006708469515833563
2.2835820895522385E-4     -0.005760161038832359
2.2878464818763323E-4     -0.004814399040432191
2.292110874200426E-4      -0.0038708770191507435
2.29637526652452E-4       -0.002929594974988016
2.3006396588486137E-4     -0.001990552907944007
2.3049040511727075E-4     -0.0010537508180187196
2.3091684434968014E-4     -1.1918870521215061E-4
2.3134328358208952E-4     8.131334304756979E-4
2.3176972281449892E-4     0.0017435436448246136
2.3219616204690828E-4     0.0026711867735745177
2.3262260127931766E-4     0.0035960628167254097
2.3304904051172707E-4     0.004518171774277291
2.3347547974413645E-4     0.005437513646230161
2.3390191897654586E-4     0.006354088432584019
2.3432835820895524E-4     0.007267896133338865
2.3475479744136462E-4     0.008179169219878903
2.3518123667377397E-4     0.009087322469382795
2.3560767590618333E-4     0.009992355881850547
2.3603411513859274E-4     0.01089426945728216
2.364605543710021E-4      0.011793063195677628
2.3688699360341147E-4     0.012688737097036953
2.3731343283582085E-4     0.01358129116136014
2.3773987206823026E-4     0.01447067231663836
2.381663113006396E-4      0.015356518567819671
2.38592750533049E-4       0.016238829914904065
2.390191897654584E-4      0.017117606357891547
2.3944562899786778E-4     0.01799284789678212
2.3987206823027716E-4     0.018864554531575775
2.4029850746268655E-4     0.01973272626227252
2.4072494669509595E-4     0.020597298135408303
2.4115138592750533E-4     0.02145797861847316
2.415778251599147E-4      0.02231476771146709
2.420042643923241E-4      0.023167665414390096
2.4243070362473348E-4     0.02401667172724218
2.4285714285714283E-4     0.02486178665002333
2.432835820895522E-4      0.02570301018273356
2.4371002132196162E-4     0.026539772074172033
2.44136460554371E-4       0.027372358606474915
2.445628997867804E-4      0.028200769779642195
2.4498933901918976E-4     0.029025005593673884
2.4541577825159915E-4     0.029845066048569985
2.458422174840085E-4      0.030660951144330477
2.462686567164179E-4      0.031472660880955385
2.466950959488273E-4      0.03227957979868224
2.4712153518123667E-4     0.03308186224149141
2.47547974413646E-4       0.03387950820938286
2.4797441364605543E-4     0.03467251770235661
2.4840085287846476E-4     0.03546089072041268
2.4882729211087414E-4     0.03624462726355104
2.492537313432835E-4      0.0370237273317717
2.496801705756929E-4      0.03779824246456405
2.501066098081023E-4      0.03856778068988554
2.5053304904051166E-4     0.03933234200773616
2.5095948827292104E-4     0.04009192641811591
2.513859275053304E-4      0.04084653392102481
2.518123667377398E-4      0.04159616451646282
2.522388059701492E-4      0.04234081820442998
2.5266524520255857E-4     0.0430802439444816
2.5309168443496795E-4     0.043814475900481306
2.5351812366737733E-4     0.04454351407242907
2.5394456289978677E-4     0.04526735846032492
2.543710021321961E-4      0.04598600906416886
2.5479744136460553E-4     0.04669946588396085
2.552238805970149E-4      0.04740772891970093
2.556503198294243E-4      0.04810975773938581
2.560767590618336E-4      0.04880640698674381
2.56503198294243E-4       0.0494976766617749
2.569296375266524E-4      0.050183566764479104
2.5735607675906176E-4     0.05086407729485643
2.5778251599147114E-4     0.05153920825290684
2.582089552238805E-4      0.05220895963863037
2.586353944562899E-4      0.05287258219179948
2.590618336886993E-4      0.05353032165100784
2.5948827292110867E-4     0.05418217801625543
2.599147121535181E-4      0.05482815128754226
2.6034115138592743E-4     0.055468241464868354
2.6076759061833686E-4     0.05610244854823367
2.6119402985074624E-4     0.056730772537638245
2.616204690831556E-4      0.05735410814163054
2.62046908315565E-4       0.05797123641857815
2.624733475479744E-4      0.05858215736848105
2.6289978678038377E-4     0.05918687099133924
2.6332622601279315E-4     0.059785377287152774
2.6375266524520253E-4     0.06037767625592157
2.641791044776119E-4      0.060963767897645675
2.646055437100213E-4      0.061544143991637566
2.650319829424307E-4      0.06211825351483738
2.6545842217484E-4        0.06268609646724507
2.6588486140724944E-4     0.06324767284886068
2.6631130063965876E-4     0.0638029826596842
2.6673773987206814E-4     0.06435202589971561
2.671641791044775E-4      0.06489480256895494
2.675906183368869E-4      0.06543120182124185