% Model:              PLacek_MembTVNJ_ArticleDims_Rh100um_hg10um_To2MHz_PHedit.mph
% Version:            COMSOL 6.3.0.335
% Date:               May 22 2025, 12:31
% Dimension:          1
% Nodes:              1801
% Expressions:        1
% Description:        Line graph
% Arc length (m)          imag(p)
0                         NaN
1.6835192320072636E-7     -0.023058284196095433
3.367038464014527E-7      -0.02305901730971506
5.050557696021791E-7      -0.023059046850977892
6.734076928029054E-7      -0.023058372819905346
8.417596160036319E-7      -0.02305699521647823
1.0101115392043582E-6     -0.02305323856295941
1.1801802473622774E-6     -0.023055644450637153
1.3502489555201964E-6     -0.02305809823860835
1.5203176636781154E-6     -0.02305892444911966
1.6903863718360344E-6     -0.023058123082158283
1.8604550799939534E-6     -0.023055694137739058
2.0305237881518723E-6     -0.023052186397334338
2.200592664946635E-6      -0.023055417296636627
2.370661541741397E-6      -0.023057002040803
2.5407304185361593E-6     -0.023057489411338967
2.710799295330922E-6      -0.023056879408214954
2.880868172125684E-6      -0.023055172031457575
3.0509370489204466E-6     -0.023052844139831975
3.2210059257152087E-6     -0.02305508333399265
3.3910748025099717E-6     -0.023056041512233855
3.5611436793047335E-6     -0.023056195533334996
3.731212556099496E-6      -0.02305554539729317
3.901281432894258E-6      -0.023054091104104283
4.07135030968902E-6       -0.023051982165231313
4.2414191864837825E-6     -0.023053250800028777
4.411488063278545E-6      -0.02305387969218333
4.581556940073307E-6      -0.023054018353135402
4.751625816868069E-6      -0.023053666782884983
4.921694693662831E-6      -0.02305282498143207
5.091763570457593E-6      -0.023051320357151232
5.261832447252356E-6      -0.023051184388713442
5.4319013240471185E-6     -0.023051033983773953
5.601970200841881E-6      -0.0230506965506868
5.772039077636643E-6      -0.023050172089466244
5.942107954431407E-6      -0.02304946060009916
6.112176831226169E-6      -0.023048469671797765
6.282245708020931E-6      -0.02304763164396569
6.452314584815693E-6      -0.023046894278221153
6.622383461610455E-6      -0.02304616516376667
6.7924523384052175E-6     -0.02304544430059427
6.96252121519998E-6       -0.023044731688711927
7.132590091994742E-6      -0.023043856359948205
7.302658968789505E-6      -0.023042417276874273
7.472727845584267E-6      -0.023041279961720697
7.642796722379028E-6      -0.02304027344631718
7.812865599173792E-6      -0.023039397730672845
7.982934475968554E-6      -0.02303865281477743
8.153003352763316E-6      -0.023037755194514745
8.323072229558079E-6      -0.02303585528387105
8.493141106352842E-6      -0.02303444973854849
8.663209983147605E-6      -0.02303325505441834
8.833278859942367E-6      -0.02303227123148288
9.003347736737129E-6      -0.023031498269743246
9.173416613531891E-6      -0.023030574397031697
9.343485490326653E-6      -0.023028315865464274
9.513554367121415E-6      -0.023026685077072093
9.683623243916178E-6      -0.023025320259679426
9.853692120710938E-6      -0.0230242214132914
1.00237609975057E-5       -0.023023388537909733
1.0193829874300462E-5     -0.023022421635715336
1.0363898751095225E-5     -0.023019885352093004
1.0533967627889988E-5     -0.02301804993555561
1.070403650468475E-5      -0.02301651538829947
1.0874105381479513E-5     -0.023015281710320596
1.1044174258274277E-5     -0.023014348901617278
1.1214243135069039E-5     -0.023013295186791915
1.1384312011863803E-5     -0.023010530797350954
1.1554380888658565E-5     -0.023008510024624305
1.1724449765453327E-5     -0.023006811093202392
1.1894518642248089E-5     -0.02300543400308693
1.2064587519042851E-5     -0.023004378754282483
1.2234656395837613E-5     -0.023003199836838642
1.2404725272632376E-5     -0.023000232721755085
1.257479414942714E-5      -0.02299804475799546
1.27448630262219E-5       -0.02299619043558998
1.2914931903016664E-5     -0.02299466975456145
1.3085000779811424E-5     -0.022993482714888207
1.3255069656606186E-5     -0.022992159932209155
1.3425138533400948E-5     -0.022989008321413516
1.3595207410195712E-5     -0.02298666441624584
1.3765276286990473E-5     -0.022984658832331355
1.3935345163785237E-5     -0.02298299156966835
1.4105414040579997E-5     -0.0229816626282745
1.427548291737476E-5      -0.022980182047495225
1.4445551794169521E-5     -0.02297686707336595
1.4615620670964285E-5     -0.022974377162386043
1.4785689547759046E-5     -0.022972222353915172
1.495575842455381E-5      -0.0229704026479619
1.5125827301348572E-5     -0.02296891804451881
1.5295896178143334E-5     -0.022967257557698628
1.5465965054938098E-5     -0.02296379710135489
1.5636033931732858E-5     -0.022961171536422693
1.580610280852762E-5      -0.022958869877011925
1.5976171685322383E-5     -0.022956892123137392
1.6146240562117146E-5     -0.022955238274789982
1.6316309438911907E-5     -0.022953371096153315
1.648637831570667E-5      -0.02294977454096771
1.665644719250143E-5      -0.022947021994800133
1.6826516069296195E-5     -0.022944576221821646
1.6996584946090956E-5     -0.022942437222040805
1.716665382288572E-5      -0.022940604995459322
1.733672269968048E-5      -0.022938516571893223
1.7506791576475244E-5     -0.022934790314552908
1.7676860453270008E-5     -0.02293191155615902
1.7846929330064768E-5     -0.022929317326537295
1.8016998206859532E-5     -0.02292700762569285
1.8187067083654292E-5     -0.022924982453623413
1.8357135960449056E-5     -0.022922614743191946
1.852720483724382E-5      -0.022918735174763824
1.8697273714038584E-5     -0.022915742478112344
1.8867342590833344E-5     -0.022913009586098196
1.9037411467628108E-5     -0.022910536498716817
1.9207480344422872E-5     -0.022908323215978466
1.9377549221217633E-5     -0.022905692179157507
1.9547618098012396E-5     -0.022901655531094196
1.9717686974807157E-5     -0.022898536158609945
1.9887755851601917E-5     -0.02289565650296657
2.005782472839668E-5      -0.022893016564166913
2.0227893605191438E-5     -0.022890616342213257
2.0397962481986202E-5     -0.022887730907623454
2.0568031358780966E-5     -0.022883526146837585
2.073810023557573E-5      -0.022880270156427775
2.090816911237049E-5      -0.022877238006900467
2.1078237989165254E-5     -0.022874429698255663
2.1248306865960018E-5     -0.022871845230508184
2.141837574275478E-5      -0.022868719406945525
2.1588444619549542E-5     -0.022864338908876843
2.1758513496344303E-5     -0.02286093572283128
2.1928582373139063E-5     -0.02285774465209291
2.2098651249933827E-5     -0.022854765696675407
2.2268720126728584E-5     -0.02285199885657764
2.2438789003523348E-5     -0.0228486461002112
2.2608857880318112E-5     -0.022844083025716066
2.2778926757112876E-5     -0.022840521732206125
2.2948995633907636E-5     -0.022837164188082695
2.3119064510702397E-5     -0.02283401039336004
2.3289133387497164E-5     -0.02283106034802846
2.3459202264291924E-5     -0.022827478756252975
2.3629271141086688E-5     -0.022822716697857875
2.379934001788145E-5      -0.02281898844925336
2.396940889467621E-5      -0.02281545871459476
2.4139477771470973E-5     -0.022812127493882645
2.4309546648265737E-5     -0.022808994787115306
2.4479615525060497E-5     -0.02280518958221861
2.464968440185526E-5      -0.02280022115051252
2.481975327865002E-5      -0.022796318545468184
2.4989822155444785E-5     -0.022792610754999495
2.515989103223955E-5      -0.0227890977790962
2.532995990903431E-5      -0.02278577961777197
2.5500028785829074E-5     -0.022781745766420697
2.5670097662623834E-5     -0.022776562975915602
2.5840166539418598E-5     -0.02277248164723714
2.6010235416213362E-5     -0.022768591275788296
2.6180304293008122E-5     -0.022764891861563382
2.6350373169802883E-5     -0.022761383404569232
2.6520442046597647E-5     -0.02275710807615233
2.669051092339241E-5      -0.022751699257723506
2.686057980018717E-5      -0.022747435693597804
2.703064867698193E-5      -0.022743359555121693
2.7200717553776692E-5     -0.022739470842307718
2.7370786430571456E-5     -0.022735769555145613
2.7540855307366216E-5     -0.022731254504892218
2.771092418416098E-5      -0.022725616991917524
2.7880993060955744E-5     -0.02272116487447055
2.8051061937750504E-5     -0.022716896963802437
2.8221130814545265E-5     -0.02271281325992059
2.839119969134003E-5      -0.02270891376282616
2.8561268568134793E-5     -0.022704148063882622
2.8731337444929556E-5     -0.022698268970613642
2.890140632172432E-5      -0.022693622596281122
2.907147519851908E-5      -0.022689158532254255
2.9241544075313845E-5     -0.022684876778533605
2.9411612952108605E-5     -0.022680777335127734
2.958168182890337E-5      -0.022675761449978533
2.975175070569813E-5      -0.022669631538974326
2.9921819582492897E-5     -0.022664783133444114
3.0091888459287654E-5     -0.022660117481336062
3.0261957336082418E-5     -0.022655634582654165
3.0432026212877178E-5     -0.02265133443739443
3.060209508967194E-5      -0.02264608457434459
3.07721639664667E-5       -0.02263970666288656
3.0942232843261466E-5     -0.02263464429961711
3.111230172005623E-5      -0.022629765013298303
3.1282370596850994E-5     -0.022625068803957506
3.145243947364575E-5      -0.022620555671575338
3.1622508350440515E-5     -0.022615017061126293
3.179257722723528E-5      -0.022608349121699924
3.196264610403004E-5      -0.02260307282597894
3.21327149808248E-5       -0.02259797961892643
3.2302783857619563E-5     -0.022593069500536696
3.247285273441433E-5      -0.022588342470816005
3.264292161120909E-5      -0.022582535865660794
3.2812990488003855E-5     -0.022575587218163665
3.298305936479862E-5      -0.022570085244412837
3.315312824159338E-5      -0.022564767280300754
3.332319711838814E-5      -0.022559633325825702
3.3493265995182904E-5     -0.022554683380987674
3.366333487197767E-5      -0.022548590011401585
3.383340374877243E-5      -0.022541342293112346
3.400347262556719E-5      -0.022535607437043297
3.417354150236195E-5      -0.022530058008784264
3.434361037915671E-5      -0.022524694008330674
3.4513679255951466E-5     -0.022519515435695085
3.468374813274623E-5      -0.022513138324401542
3.4853817009540994E-5     -0.022505587228153188
3.502388588633576E-5      -0.022499608213208802
3.519395476313052E-5      -0.02249381731309586
3.5364023639925286E-5     -0.022488214527817223
3.553409251672005E-5      -0.022482799857366613
3.5704161393514813E-5     -0.022476123050302776
3.587423027030958E-5      -0.022468249098259185
3.604429914710434E-5      -0.022462017173511307
3.6214368023899105E-5     -0.022455977024611627
3.638443690069387E-5      -0.02245012865155444
3.655450577748863E-5      -0.022444472054346586
3.672457465428339E-5      -0.022437490763616303
3.6894643531078154E-5     -0.022429283338986993
3.706471240787292E-5      -0.02242278867356701
3.7234781284667675E-5     -0.02241649029798118
3.740485016146244E-5      -0.022410388212234622
3.7574919038257195E-5     -0.022404482416325634
3.774498791505196E-5      -0.022397197582272647
3.791505679184672E-5      -0.02238865343013588
3.808512566864148E-5      -0.022381885695419927
3.8255194545436244E-5     -0.02237531905014038
3.842526342223101E-5      -0.022368953494284118
3.8595332299025765E-5     -0.02236278902785628
3.876540117582053E-5      -0.022355185780163947
3.893547005261529E-5      -0.022346291164191547
3.910553892941006E-5      -0.02233924138452114
3.927560780620482E-5      -0.022332396570447836
3.9445676682999584E-5     -0.022325756721980186
3.961574555979435E-5      -0.02231932183910793
3.978581443658911E-5      -0.02231137370026946
3.995588331338387E-5      -0.022302103541535178
4.012595219017863E-5      -0.02229476042573527
4.02960210669734E-5       -0.022287626131299008
4.0466089943768154E-5     -0.022280700658215552
4.063615882056292E-5      -0.02227398400649175
4.0806227697357675E-5     -0.0222656633840823
4.097629657415244E-5      -0.022255989988077013
4.11463654509472E-5       -0.022248341956489233
4.1316434327741966E-5     -0.022240906497272516
4.148650320453673E-5      -0.02223368361041887
4.165657208133149E-5      -0.02222667329594426
4.182664095812625E-5      -0.022217956095366802
4.1996709834921015E-5     -0.022207855116344728
4.216677871171578E-5      -0.02219989001397258
4.233684758851054E-5      -0.022192141329773027
4.2506916465305307E-5     -0.022184609063754048
4.267698534210007E-5      -0.022177293215907664
4.2847054218894834E-5     -0.02216816594720273
4.30171230956896E-5       -0.02215761863389275
4.3187191972484355E-5     -0.022149320962910876
4.335726084927912E-5      -0.022141245095225942
4.3527329726073876E-5     -0.022133391030829404
4.369739860286864E-5      -0.022125758769727534
4.38674674796634E-5       -0.022116217197839183
4.403753635645816E-5      -0.022105206649081565
4.4207605233252925E-5     -0.022096555899484335
4.437767411004769E-5      -0.022088133834980594
4.454774298684245E-5      -0.022079940455554378
4.471781186363721E-5      -0.02207197576121424
4.4887880740431973E-5     -0.022061989425965593
4.505794961722674E-5      -0.022050483476879552
4.52280184940215E-5       -0.02204146443501186
4.539808737081626E-5      -0.022032681974352535
4.556815624761102E-5      -0.022024136094918115
4.5738225124405786E-5     -0.022015826796698907
4.590829400120055E-5      -0.022005381988983656
4.6078362877995314E-5     -0.021993349842935436
4.624843175479008E-5      -0.021983947581693624
4.641850063158484E-5      -0.021974803114537284
4.65885695083796E-5       -0.02196591644145159
4.675863838517436E-5      -0.021957287562450224
4.6928707261969126E-5     -0.021946606961601545
4.709877613876389E-5      -0.021934184635819306
4.7268845015558654E-5     -0.0219243422483416
4.743891389235341E-5      -0.021914770283225388
4.7608982769148175E-5     -0.021905468740479227
4.777905164594294E-5      -0.021896437620098547
4.79491205227377E-5       -0.021885045010590673
4.8119189399532466E-5     -0.021871898662212053
4.828925827632723E-5      -0.021861658776190524
4.845932715312199E-5      -0.021851693441044824
4.8629396029916744E-5     -0.021842002656776084
4.8799464906711515E-5     -0.02183258642338089
4.896953378350627E-5      -0.021820680346491938
4.9139602660301036E-5     -0.02180693122473653
4.93096715370958E-5       -0.021796237653716
4.947974041389056E-5      -0.02178583523903911
4.9649809290685314E-5     -0.02177572398073151
4.981987816748008E-5      -0.021765903878772114
4.998994704427484E-5      -0.021753441958560354
5.0160015921069605E-5     -0.021739026535251817
5.033008479786437E-5      -0.0217278538936404
5.050015367465913E-5      -0.021716991059109004
5.067022255145389E-5      -0.021706438031661623
5.0840291428248654E-5     -0.021696194811301108
5.101036030504342E-5      -0.021683166368132986
5.1180429181838175E-5     -0.021668061886368984
5.135049805863294E-5      -0.021656383189938636
5.15205669354277E-5       -0.021645035248965154
5.169063581222245E-5      -0.02163401806345196
5.1860704689017224E-5     -0.02162333163338764
5.203077356581198E-5      -0.021609699863477928
5.2200842442606745E-5     -0.021593854576452697
5.237091131940151E-5      -0.021581640015412108
5.254098019619627E-5      -0.021569780085045922
5.2711049072991036E-5     -0.021558274785372953
5.28811179497858E-5       -0.021547124116374383
5.3051186826580564E-5     -0.021532847681836487
5.322125570337533E-5      -0.021516204156386054
5.339132458017009E-5      -0.021503422629338922
5.3561393456964855E-5     -0.02149102270446712
5.373146233375962E-5      -0.021479004381779198
5.390153121055438E-5      -0.02146736766126661
5.407160008734914E-5      -0.021452411744950228
5.4241668964143904E-5     -0.0214349134260233
5.441173784093867E-5      -0.02142152943405291
5.4581806717733425E-5     -0.02140855897105026
5.475187559452819E-5      -0.021396002037001653
5.492194447132294E-5      -0.021383858631925337
5.50920133481177E-5       -0.021368188941244422
5.526208222491247E-5      -0.02134976311486879
5.543215110170724E-5      -0.021335733011387092
5.5602219978501995E-5     -0.021322158816217865
5.577228885529676E-5      -0.021309040529353136
5.594235773209153E-5      -0.021296378150801456
5.611242660888629E-5      -0.02127998228998699
5.628249548568105E-5      -0.02126054700435019
5.6452564362475814E-5     -0.021245816119186026
5.662263323927058E-5      -0.021231600243919214
5.679270211606533E-5      -0.021217899378541218
5.69627709928601E-5       -0.021204713523052025
5.7132839869654856E-5     -0.02118760880162237
5.730290874644962E-5      -0.02116709545686294
5.747297762324438E-5      -0.0211516071049143
5.764304650003915E-5      -0.02113670986994718
5.781311537683391E-5      -0.021122403751954726
5.7983184253628675E-5     -0.021108688750935637
5.815325313042344E-5      -0.021090903963581282
5.83233220072182E-5       -0.021069244626573527
5.8493390884012966E-5     -0.021052934924211748
5.866345976080773E-5      -0.021037313953191934
5.8833528637602494E-5     -0.021022381713509945
5.900359751439725E-5      -0.021008138205162254
5.9173666391192015E-5     -0.02098968737911596
5.934373526798678E-5      -0.020966776543941138
5.951380414478154E-5      -0.02094957099395795
5.96838730215763E-5       -0.020933174680134607
5.9853941898371064E-5     -0.020917587602477805
6.0024010775165814E-5     -0.02090280976096609
6.019407965196058E-5      -0.020883650193948937
6.036414852875534E-5      -0.02085931848278616
6.0534217405550106E-5     -0.02084112381816582
6.070428628234486E-5      -0.02082387523842292
6.087435515913962E-5      -0.020807572743544913
6.104442403593438E-5      -0.02079221633354303
6.121449291272915E-5      -0.020772208790201953
6.138456178952391E-5      -0.02074623620894069
6.155463066631868E-5      -0.020726964846512763
6.172469954311344E-5      -0.02070879748472128
6.18947684199082E-5       -0.02069173412355599
6.206483729670297E-5      -0.02067577476302879
6.223490617349773E-5      -0.02065482707861241
6.24049750502925E-5       -0.020627055087135884
6.257504392708726E-5      -0.020606650437861935
6.274511280388202E-5      -0.020587520806274198
6.291518168067679E-5      -0.02056966619236013
6.308525055747155E-5      -0.020553086596135133
6.325531943426631E-5      -0.02053121396679537
6.342538831106108E-5      -0.0205016019631818
6.359545718785583E-5      -0.02048000578754464
6.376552606465059E-5      -0.02045985738908292
6.393559494144536E-5      -0.02044115676779493
6.41056638182401E-5       -0.02042390392367781
6.427573269503487E-5      -0.020401086029797292
6.444580157182963E-5      -0.020369620661053828
6.461587044862441E-5      -0.020346780869650662
6.478593932541916E-5      -0.020325553828631285
6.495600820221393E-5      -0.02030593953800995
6.512607707900869E-5      -0.02028793799776784
6.529614595580345E-5      -0.020264095030521283
6.546621483259822E-5      -0.020230732995259206
6.5636283709393E-5        -0.020206596488635216
6.580635258618774E-5      -0.02018423133323885
6.597642146298251E-5      -0.020163637529069526
6.614649033977727E-5      -0.020144815076136947
6.631655921657204E-5      -0.02011987647387654
6.64866280933668E-5       -0.02008455420842275
6.665669697016156E-5      -0.02005905086428267
6.682676584695633E-5      -0.02003547894089801
6.699683472375108E-5      -0.020013838438254508
6.716690360054584E-5      -0.019994129356365277
6.73369724773406E-5       -0.019968039293943918
6.750704135413537E-5      -0.0199306635628196
6.767711023093013E-5      -0.019903701285683403
6.784717910772488E-5      -0.01987884006124721
6.801724798451965E-5      -0.01985607988950475
6.818731686131441E-5      -0.019835420770454307
6.835738573810918E-5      -0.019808133979425678
6.852745461490394E-5      -0.019768582720636196
6.86975234916987E-5       -0.019740049701058714
6.886759236849347E-5      -0.01971380619601789
6.903766124528822E-5      -0.019689852205490906
6.920773012208298E-5      -0.019668187729494878
6.937779899887774E-5      -0.019639688244585354
6.954786787567251E-5      -0.019597822805184687
6.971793675246727E-5      -0.019567585817896516
6.988800562926202E-5      -0.019539852759285527
7.005807450605679E-5      -0.019514623629357984
7.022814338285155E-5      -0.019491898428103064
7.039821225964631E-5      -0.019462184579146696
7.056828113644108E-5      -0.01941785419328584
7.073835001323584E-5      -0.01938576005849193
7.09084188900306E-5       -0.01935640959836182
7.107848776682537E-5      -0.019329802812888666
7.124855664362013E-5      -0.019305939702089013
7.14186255204149E-5       -0.019274980177035946
7.158869439720966E-5      -0.019228017596503475
7.175876327400443E-5      -0.019193898247110378
7.192883215079919E-5      -0.01916278203993489
7.209890102759395E-5      -0.01913466897496958
7.226896990438872E-5      -0.019109559052228716
7.243903878118348E-5      -0.01907728589624188
7.260910765797824E-5      -0.019027487233565895
7.277917653477301E-5      -0.01899114768795586
7.294924541156777E-5      -0.018958100883947615
7.311931428836252E-5      -0.018928346821540036
7.32893831651573E-5       -0.018901885500736532
7.345945204195205E-5      -0.01886828375625075
7.362952091874681E-5      -0.018815410000259745
7.379958979554158E-5      -0.01877660236733261
7.396965867233633E-5      -0.01874142769219681
7.413972754913108E-5      -0.018709885974845072
7.430979642592586E-5      -0.018681977215282246
7.44798653027206E-5       -0.01864710490582591
7.464993417951538E-5      -0.018590894918980173
7.482000305631013E-5      -0.018549316481322662
7.499007193310491E-5      -0.018511773085172798
7.516014080989968E-5      -0.018478264730524743
7.533020968669444E-5      -0.018448791417380487
7.55002785634892E-5       -0.018412752791128903
7.567034744028397E-5      -0.018352933810685167
7.584041631707873E-5      -0.01830820982840962
7.601048519387348E-5      -0.018267980489682305
7.618055407066824E-5      -0.018232245794508915
7.6350622947463E-5        -0.018201005742882647
7.652069182425776E-5      -0.018163794572533067
7.669076070105252E-5      -0.018099997217844378
7.686082957784729E-5      -0.018051692992247015
7.703089845464205E-5      -0.01800841613346609
7.72009673314368E-5       -0.01797016664150688
7.737103620823156E-5      -0.017936944516360517
7.754110508502633E-5      -0.017898613970108813
7.771117396182109E-5      -0.017830340849762625
7.788124283861586E-5      -0.017777897702213132
7.805131171541062E-5      -0.017731148739548893
7.822138059220538E-5      -0.017690093961761497
7.839144946900015E-5      -0.017654733368858925
7.856151834579491E-5      -0.017615594655970956
7.873158722258968E-5      -0.017542179208739045
7.890165609938444E-5      -0.01748481117980896
7.907172497617919E-5      -0.017434018264306492
7.924179385297395E-5      -0.017389800462243043
7.941186272976872E-5      -0.017352157773623176
7.958193160656348E-5      -0.017312711920314108
7.975200048335824E-5      -0.01723325581093036
7.992206936015301E-5      -0.017169912403442948
8.009213823694777E-5      -0.017114303419729356
8.026220711374252E-5      -0.01706642885979585
8.04322759905373E-5       -0.017026288723631603
8.060234486733205E-5      -0.016987087665066167
8.077241374412683E-5      -0.01690041227178209
8.094248262092158E-5      -0.016829769426789973
8.111255149771634E-5      -0.016768363783898267
8.12826203745111E-5       -0.01671619534312294
8.145268925130588E-5      -0.016673264104448023
8.162275812810063E-5      -0.0166349399748799
8.179282700489541E-5      -0.016539528031903766
8.196289588169016E-5      -0.016459916717332507
8.213296475848491E-5      -0.016391475938164524
8.230303363527969E-5      -0.01633420569440324
8.247310251207444E-5      -0.016288105986044098
8.26431713888692E-5       -0.016251472965114394
8.281324026566398E-5      -0.016145332382417086
8.298330914245874E-5      -0.016054576097742076
8.31533780192535E-5       -0.01597750026312922
8.332344689604827E-5      -0.015914104878570534
8.349351577284304E-5      -0.015864389944064305
8.36635846496378E-5       -0.0158305333315115
8.383365352643258E-5      -0.015711031005942178
8.400372240322733E-5      -0.015606313900706494
8.417379128002208E-5      -0.015518559887688875
8.434386015681686E-5      -0.015447768966889323
8.45139290336116E-5       -0.015393941138300995
8.468399791040637E-5      -0.015364448387648055
8.485406678720113E-5      -0.015228296420703426
8.50241356639959E-5       -0.015105969266687103
8.519420454079065E-5      -0.01500483891131299
8.536427341758541E-5      -0.014924905354581085
8.553434229438016E-5      -0.014866168596484548
8.570441117117493E-5      -0.014842444370325527
8.587448004796969E-5      -0.014685259322539017
8.604454892476445E-5      -0.014540873415795866
8.621461780155922E-5      -0.01442310238337997
8.638468667835397E-5      -0.014331946225269671
8.655475555514873E-5      -0.014267404941504306
8.67248244319435E-5       -0.014251627252087
8.689489330873826E-5      -0.014068219951673186
8.706496218553302E-5      -0.013896033870861628
8.723503106232779E-5      -0.013757217729679971
8.740509993912255E-5      -0.013651771528129355
8.757516881591731E-5      -0.013579695266206927
8.774523769271208E-5      -0.013573481857064603
8.791530656950684E-5      -0.013357684364276897
8.80853754463016E-5       -0.013150870639011427
8.825544432309636E-5      -0.012985533594406993
8.842551319989112E-5      -0.012861673230472718
8.859558207668588E-5      -0.01277928954719606
8.876565095348065E-5      -0.012783507209777237
8.893571983027541E-5      -0.012528185787720088
8.910578870707019E-5      -0.012278629404725972
8.927585758386494E-5      -0.012079962725982997
8.94459264606597E-5       -0.011932185751494443
8.961599533745447E-5      -0.011835298481252464
8.978606421424923E-5      -0.011849359836145237
8.9956133091044E-5        -0.011546415721786578
9.012620196783876E-5      -0.01124481455367119
9.029627084463352E-5      -0.011004615252671702
9.046633972142827E-5      -0.010825817818785843
9.063640859822305E-5      -0.010708422252007401
9.08064774750178E-5       -0.010729450656609277
9.097654635181258E-5      -0.010369906683554544
9.114661522860733E-5      -0.010006007572932607
9.131668410540209E-5      -0.009714775429003166
9.148675298219686E-5      -0.009496210251754823
9.165682185899162E-5      -0.009350312041200263
9.182689073578638E-5      -0.009372547383796358
9.199695961258116E-5      -0.008946670751410693
9.216702848937591E-5      -0.008509590628423313
9.233709736617066E-5      -0.00815677360130663
9.250716624296544E-5      -0.007888219670047242
9.267723511976019E-5      -0.00770392883465595
9.284730399655495E-5      -0.007718249824105714
9.301737287334972E-5      -0.00721584047552085
9.31874417501445E-5       -0.0066947513265748085
9.335751062693924E-5      -0.00626933110625513
9.3527579503734E-5        -0.00593957981456381
9.369764838052876E-5      -0.005705497451491191
9.386771725732352E-5      -0.005698781735582236
9.403778613411829E-5      -0.0051099671213108416
9.420785501091305E-5      -0.004495616902749622
9.43779238877078E-5       -0.003987428798448777
9.454799276450256E-5      -0.0035854028084084523
9.471806164129733E-5      -0.0032895389326215896
9.488813051809209E-5      -0.003244166044047838
9.505819939488686E-5      -0.0025610498990962815
9.522826827168162E-5      -0.001848315168735909
9.539833714847638E-5      -0.001250290725928719
9.556840602527113E-5      -7.669765706608846E-4
9.57384749020659E-5       -3.983727029439521E-4
9.590854377886066E-5      -2.9255558532669397E-4
9.607861265565543E-5      4.880284444270887E-4
9.62486815324502E-5       0.0012968167749534665
9.641875040924495E-5      0.00198573294371222
9.658881928603972E-5      0.0025547769507071982
9.675888816283448E-5      0.0030039487959296345
9.692895703962925E-5      0.0031943893427471325
9.709902591642401E-5      0.004067348968795898
9.726909479321879E-5      0.004959305094960747
9.743916367001354E-5      0.005731398584592962
9.76092325468083E-5       0.006383629437701665
9.777930142360306E-5      0.0069159976542821884
9.794937030039783E-5      0.007213813138417366
9.811943917719258E-5      0.008162832338089503
9.828950805398736E-5      0.009113562282156713
9.84595769307821E-5       0.00995131287469338
9.862964580757686E-5      0.010676084115697225
9.879971468437162E-5      0.011287876005173912
9.896978356116637E-5      0.011708967992855882
9.913985243796113E-5      0.012706179455262485
9.930992131475591E-5      0.013682705213202495
9.947999019155066E-5      0.014560824716330821
9.965005906834544E-5      0.015340537964693313
9.982012794514019E-5      0.016021844958278526
9.999019682193495E-5      0.016570249284957417
1.0016026569872972E-4     0.01758039946491033
1.003303345755245E-4      0.01854796442018077
1.0050040345231925E-4     0.019438447738508894
1.0067047232911402E-4     0.02025184941996587
1.0084054120590877E-4     0.020988169464532185
1.0101061008270354E-4     0.021653706072557823
1.011806789594983E-4      0.022642158571523033
1.0135074783629308E-4     0.023572426203623584
1.0152081671308783E-4     0.024450807169102338
1.016908855898826E-4      0.02527730146804059
1.0186095446667736E-4     0.026051909100393903
1.0203102334347212E-4     0.026811758873709124
1.0220109222026688E-4     0.027752597492136964
1.0237116109706166E-4     0.02862949719504973
1.0254122997385641E-4     0.029479586789872014
1.0271129885065116E-4     0.030302866276657247
1.0288136772744593E-4     0.031099335655381043
1.0305143660424069E-4     0.031923213070818024
1.0322150548103545E-4     0.032803630034800406
1.0339157435783022E-4     0.03362430447663153
1.0356164323462497E-4     0.03443945454097414
1.0373171211141973E-4     0.035249080227894636
1.0390178098821448E-4     0.03605318153736103
1.0407184986500925E-4     0.03691006588593021
1.0424191874180401E-4     0.037729855262925785
1.0441198761859879E-4     0.03850114223225898
1.0458205649539355E-4     0.039282234210351936
1.047521253721883E-4      0.04007313119727894
1.0492219424898308E-4     0.04087383319300549
1.0509226312577784E-4     0.04173764322685018
1.052623320025726E-4      0.04250530269583675
1.0543240087936737E-4     0.04323849601365235
1.0560246975616213E-4     0.04399052620948234
1.0577253863295688E-4     0.044761393283410826
1.0594260750975165E-4     0.04555109723538857