% Model:              PLacek_MembTVNJ_ArticleDims_Rh100um_hg10um_To2MHz_PHedit.mph
% Version:            COMSOL 6.3.0.420
% Date:               Aug 12 2025, 09:40
% Dimension:          1
% Nodes:              1801
% Expressions:        1
% Description:        Line graph
% Arc length (m)          imag(p)
0                         NaN
1.6835192320072636E-7     -0.0051830245778881345
3.367038464014527E-7      -0.005182559280144919
5.050557696021791E-7      -0.005183498586689624
6.734076928029054E-7      -0.005185842497533999
8.417596160036319E-7      -0.005189591012676364
1.0101115392043582E-6     -0.0051906677914171865
1.1801802473622774E-6     -0.0051887113240838304
1.3502489555201964E-6     -0.0051898868810529575
1.5203176636781154E-6     -0.005190118121607887
1.6903863718360344E-6     -0.005189405045752438
1.8604550799939534E-6     -0.00518774765348825
2.0305237881518723E-6     -0.005184914297113565
2.200592664946635E-6      -0.00519007445835252
2.370661541741397E-6      -0.005193752171151643
2.5407304185361593E-6     -0.005195715787827912
2.710799295330922E-6      -0.005195965308366359
2.880868172125684E-6      -0.005194500732771431
3.0509370489204466E-6     -0.005190938408696408
3.2210059257152087E-6     -0.005197072781542213
3.3910748025099717E-6     -0.005201702383015422
3.5611436793047335E-6     -0.005204443560754112
3.731212556099496E-6      -0.00520529631476481
3.901281432894258E-6      -0.005204260645045954
4.07135030968902E-6       -0.005201056620333737
4.2414191864837825E-6     -0.005207904861785594
4.411488063278545E-6      -0.005213081473104407
4.581556940073307E-6      -0.005216306523007933
4.751625816868069E-6      -0.005217580011486415
4.921694693662831E-6      -0.005216901938560587
5.091763570457593E-6      -0.005213950751660065
5.261832447252356E-6      -0.005221210302676014
5.4319013240471185E-6     -0.005226769533397314
5.601970200841881E-6      -0.005230306891265373
5.772039077636643E-6      -0.0052318223762785636
5.942107954431407E-6      -0.005231315988445424
6.112176831226169E-6      -0.005228593738949263
6.282245708020931E-6      -0.005236564411186847
6.452314584815693E-6      -0.00524261116856677
6.622383461610455E-6      -0.005246540022276003
6.7924523384052175E-6     -0.005248350972301535
6.96252121519998E-6       -0.005248044018659223
7.132590091994742E-6      -0.005245473546621575
7.302658968789505E-6      -0.005254150444835356
7.472727845584267E-6      -0.005260748901081469
7.642796722379028E-6      -0.005265123300644213
7.812865599173792E-6      -0.005267273643517082
7.982934475968554E-6      -0.005267199929704145
8.153003352763316E-6      -0.005264792057739802
8.323072229558079E-6      -0.005274206434506019
8.493141106352842E-6      -0.0052814019008867695
8.663209983147605E-6      -0.005286268355421337
8.833278859942367E-6      -0.005288805798103217
9.003347736737129E-6      -0.005289014228944608
9.173416613531891E-6      -0.0052868166361648185
9.343485490326653E-6      -0.005296941221247394
9.513554367121415E-6      -0.005304722948554152
9.683623243916178E-6      -0.0053100848062995285
9.853692120710938E-6      -0.00531302679449084
1.00237609975057E-5       -0.00531354891312524
1.0193829874300462E-5     -0.005311612620327289
1.0363898751095225E-5     -0.005322407035497501
1.0533967627889988E-5     -0.005330746990264857
1.070403650468475E-5      -0.0053365939427413136
1.0874105381479513E-5     -0.0053399478929203655
1.1044174258274277E-5     -0.005340808840816243
1.1214243135069039E-5     -0.005339179730240022
1.1384312011863803E-5     -0.005350602093296338
1.1554380888658565E-5     -0.0053594747653950975
1.1724449765453327E-5     -0.005365800690377868
1.1894518642248089E-5     -0.005369579868251155
1.2064587519042851E-5     -0.005370812299001137
1.2234656395837613E-5     -0.0053695386550837165
1.2404725272632376E-5     -0.005381543532146494
1.257479414942714E-5      -0.005390927160848045
1.27448630262219E-5       -0.005397730213616627
1.2914931903016664E-5     -0.005401952690465249
1.3085000779811424E-5     -0.005403594591386188
1.3255069656606186E-5     -0.0054027292491768825
1.3425138533400948E-5     -0.005415269885629166
1.3595207410195712E-5     -0.005425141676951141
1.3765276286990473E-5     -0.005432417955931711
1.3935345163785237E-5     -0.005437098722579006
1.4105414040579997E-5     -0.0054391839768893665
1.427548291737476E-5      -0.005438778097789609
1.4445551794169521E-5     -0.005451814587605883
1.4615620670964285E-5     -0.005462153027344272
1.4785689547759046E-5     -0.005469897795928746
1.495575842455381E-5      -0.005475048893379634
1.5125827301348572E-5     -0.0054776063196778245
1.5295896178143334E-5     -0.005477704101408801
1.5465965054938098E-5     -0.005491204046919301
1.5636033931732858E-5     -0.0055019913867152435
1.580610280852762E-5      -0.005510200147361377
1.5976171685322383E-5     -0.005515830328865019
1.6146240562117146E-5     -0.005518881931230233
1.6316309438911907E-5     -0.005519515280278012
1.648637831570667E-5      -0.005533457661669577
1.665644719250143E-5      -0.005544684863361035
1.6826516069296195E-5     -0.005553357211164431
1.6996584946090956E-5     -0.005559474705100091
1.716665382288572E-5      -0.005563037345153788
1.733672269968048E-5      -0.0055642279201868206
1.7506791576475244E-5     -0.005578604835952165
1.7676860453270008E-5     -0.005590268693745208
1.7846929330064768E-5     -0.005599402282397572
1.8016998206859532E-5     -0.00560600560192796
1.8187067083654292E-5     -0.00561007865233027
1.8357135960449056E-5     -0.005611817934764215
1.852720483724382E-5      -0.0056266464092759325
1.8697273714038584E-5     -0.00563876504430251
1.8867342590833344E-5     -0.005648370341015448
1.9037411467628108E-5     -0.005655462299400109
1.9207480344422872E-5     -0.005660040919473163
1.9377549221217633E-5     -0.0056623141888001985
1.9547618098012396E-5     -0.005677624129358628
1.9717686974807157E-5     -0.005690219307661101
1.9887755851601917E-5     -0.005700307711283372
2.005782472839668E-5      -0.005707889340225441
2.0227893605191438E-5     -0.005712964194486901
2.0397962481986202E-5     -0.005715750698282962
2.0568031358780966E-5     -0.005731571563527539
2.073810023557573E-5      -0.005744664857425336
2.090816911237049E-5      -0.005755249004193595
2.1078237989165254E-5     -0.005763324003825811
2.1248306865960018E-5     -0.005768889856328491
2.141837574275478E-5      -0.005772176484698026
2.1588444619549542E-5     -0.005788533621143477
2.1758513496344303E-5     -0.00580214304135641
2.1928582373139063E-5     -0.005813234668328339
2.2098651249933827E-5     -0.005821808502071461
2.2268720126728584E-5     -0.005827864542581711
2.2438789003523348E-5     -0.0058316453801541875
2.2608857880318112E-5     -0.005848559702406124
2.2778926757112876E-5     -0.005862699950129362
2.2948995633907636E-5     -0.005874308713623069
2.3119064510702397E-5     -0.005883385992897001
2.3289133387497164E-5     -0.005889931787943435
2.3459202264291924E-5     -0.005894199668800055
2.3629271141086688E-5     -0.005911692712718147
2.379934001788145E-5      -0.005926381569525749
2.396940889467621E-5      -0.005938519809259327
2.4139477771470973E-5     -0.0059481074319270135
2.4309546648265737E-5     -0.0059551444375157995
2.4479615525060497E-5     -0.005959896691379137
2.464968440185526E-5      -0.0059779906913421535
2.481975327865002E-5      -0.005993244822803864
2.4989822155444785E-5     -0.006005924951101463
2.515989103223955E-5      -0.00601603107622194
2.532995990903431E-5      -0.006023563198181151
2.5500028785829074E-5     -0.006028802146339957
2.5670097662623834E-5     -0.006047517374355415
2.5840166539418598E-5     -0.00606335099427978
2.6010235416213362E-5     -0.006076583835467815
2.6180304293008122E-5     -0.006087215897925209
2.6350373169802883E-5     -0.006095247181651559
2.6520442046597647E-5     -0.006100976316018293
2.669051092339241E-5      -0.006120332738516979
2.686057980018717E-5      -0.006136760633894864
2.703064867698193E-5      -0.0061505586315205325
2.7200717553776692E-5     -0.00616172673140049
2.7370786430571456E-5     -0.0061702649335375805
2.7540855307366216E-5     -0.006176491682991266
2.771092418416098E-5      -0.006196506606053126
2.7880993060955744E-5     -0.006213542423636812
2.8051061937750504E-5     -0.006227917580810322
2.8221130814545265E-5     -0.00623963207758504
2.839119969134003E-5      -0.006248685913943485
2.8561268568134793E-5     -0.006255418342768262
2.8731337444929556E-5     -0.006276106741922741
2.890140632172432E-5      -0.006293763960006895
2.907147519851908E-5      -0.006308729249895607
2.9241544075313845E-5     -0.0063210026115896895
2.9411612952108605E-5     -0.00633058404508711
2.958168182890337E-5      -0.006337831981584566
2.975175070569813E-5      -0.006359204883729526
2.9921819582492897E-5     -0.006377497392667831
3.0091888459287654E-5     -0.006393067939594148
3.0261957336082418E-5     -0.006405916524517419
3.0432026212877178E-5     -0.0064160431474315485
3.060209508967194E-5      -0.006423823301007544
3.07721639664667E-5       -0.006445889719121819
3.0942232843261466E-5     -0.0064648278458055404
3.111230172005623E-5      -0.006481013173717116
3.1282370596850994E-5     -0.006494445702869556
3.145243947364575E-5      -0.006505125433255948
3.1622508350440515E-5     -0.006513440201690252
3.179257722723528E-5      -0.006536224888934164
3.196264610403004E-5      -0.00655583124354362
3.21327149808248E-5       -0.00657264710232648
3.2302783857619563E-5     -0.006586672465284369
3.247285273441433E-5      -0.006597907332413224
3.264292161120909E-5      -0.006606750574766611
3.2812990488003855E-5     -0.006630293233825283
3.298305936479862E-5      -0.006650598594891368
3.315312824159338E-5      -0.006668065529010302
3.332319711838814E-5      -0.006682694036182897
3.3493265995182904E-5     -0.006694484116406715
3.366333487197767E-5      -0.006703847274852438
3.383340374877243E-5      -0.0067281881782730885
3.400347262556719E-5      -0.006749222225872021
3.417354150236195E-5      -0.006767360922813412
3.434361037915671E-5      -0.006782604269094822
3.4513679255951466E-5     -0.006794952264715848
3.468374813274623E-5      -0.0068048331845182945
3.4853817009540994E-5     -0.006830011060722678
3.502388588633576E-5      -0.006851802106420388
3.519395476313052E-5      -0.006870634596453638
3.5364023639925286E-5     -0.0068865085308142965
3.553409251672005E-5      -0.006899423909499519
3.5704161393514813E-5     -0.0069098274110153835
3.587423027030958E-5      -0.0069358731603155884
3.604429914710434E-5      -0.0069584461534883315
3.6214368023899105E-5     -0.0069779930690132665
3.638443690069387E-5      -0.006994513906899336
3.655450577748863E-5      -0.007008008667137599
3.672457465428339E-5      -0.007018942559562881
3.6894643531078154E-5     -0.007045885413579042
3.706471240787292E-5      -0.007069266210966922
3.7234781284667675E-5     -0.007089550161541832
3.740485016146244E-5      -0.007106737265316785
3.7574919038257195E-5     -0.007120827522278361
3.774498791505196E-5      -0.007132305859256807
3.791505679184672E-5      -0.0071601710564865645
3.808512566864148E-5      -0.007184382691872033
3.8255194545436244E-5     -0.007205425692239792
3.842526342223101E-5      -0.007223300057581715
3.8595332299025765E-5     -0.00723800578790471
3.876540117582053E-5      -0.007250051578421816
3.893547005261529E-5      -0.007278862329168568
3.910553892941006E-5      -0.007303924058000194
3.927560780620482E-5      -0.007325745460117947
3.9445676682999584E-5     -0.007344326535527109
3.961574555979435E-5      -0.007359667284228088
3.978581443658911E-5      -0.007372301147826803
3.995588331338387E-5      -0.007402088010140927
4.012595219017863E-5      -0.007428025864236873
4.02960210669734E-5       -0.00745064815170958
4.0466089943768154E-5     -0.007469954872559051
4.063615882056292E-5      -0.007485946026784878
4.0806227697357675E-5     -0.007499179253442691
4.097629657415244E-5      -0.0075299860121579515
4.11463654509472E-5       -0.007556835699721507
4.1316434327741966E-5     -0.007580285955179631
4.148650320453673E-5      -0.007600336778530291
4.165657208133149E-5      -0.00761698816977796
4.182664095812625E-5      -0.007630823229017894
4.1996709834921015E-5     -0.007662706607268762
4.216677871171578E-5      -0.007690511528245092
4.233684758851054E-5      -0.007714821092049865
4.2506916465305307E-5     -0.00773563529867048
4.267698534210007E-5      -0.007752954148113441
4.2847054218894834E-5     -0.007767390939916274
4.30171230956896E-5       -0.00780041078194414
4.3187191972484355E-5     -0.007829216076760811
4.335726084927912E-5      -0.007854420123889995
4.3527329726073876E-5     -0.007876022923339821
4.369739860286864E-5      -0.007894024475103782
4.38674674796634E-5       -0.007909070303975516
4.403753635645816E-5      -0.007943276815827937
4.4207605233252925E-5     -0.007973124010609624
4.437767411004769E-5      -0.007999257413115832
4.454774298684245E-5      -0.008021677023342494
4.471781186363721E-5      -0.008040382841292862
4.4887880740431973E-5     -0.008056055843684039
4.505794961722674E-5      -0.008091502943569417
4.52280184940215E-5       -0.008122433550512835
4.539808737081626E-5      -0.008149528641210248
4.556815624761102E-5      -0.008172788215678732
4.5738225124405786E-5     -0.008192212273907717
4.590829400120055E-5      -0.0082085100446244
4.6078362877995314E-5     -0.008245231548934204
4.624843175479008E-5      -0.008277297238152534
4.641850063158484E-5      -0.00830541634098951
4.65885695083796E-5       -0.008329588857442288
4.675863838517436E-5      -0.008349814787516964
4.6928707261969126E-5     -0.008366785156575778
4.709877613876389E-5      -0.008404738112979662
4.7268845015558654E-5     -0.00843794583078569
4.743891389235341E-5      -0.008467099335337
4.7608982769148175E-5     -0.008492198626650665
4.777905164594294E-5      -0.008513243704720992
4.79491205227377E-5       -0.00853098087580101
4.8119189399532466E-5     -0.008570304567579247
4.828925827632723E-5      -0.008604698129315871
4.845932715312199E-5      -0.008634907867265541
4.8629396029916744E-5     -0.008660933781427443
4.8799464906711515E-5     -0.00868277587180971
4.896953378350627E-5      -0.008701215816815117
4.9139602660301036E-5     -0.008742022034997627
4.93096715370958E-5       -0.008777708720001975
4.947974041389056E-5      -0.008809057550231753
4.9649809290685314E-5     -0.008836068525706883
4.981987816748008E-5      -0.008858741646410694
4.998994704427484E-5      -0.008877897905373616
5.0160015921069605E-5     -0.008920241929624189
5.033008479786437E-5      -0.008957270450175275
5.050015367465913E-5      -0.00898980446003006
5.067022255145389E-5      -0.009017843959208058
5.0840291428248654E-5     -0.009041388947700325
5.101036030504342E-5      -0.009061300656962094
5.1180429181838175E-5     -0.00910523835920158
5.135049805863294E-5      -0.009143661385477172
5.15205669354277E-5       -0.009177430967250612
5.169063581222245E-5      -0.009206547104529212
5.1860704689017224E-5     -0.00923100979729509
5.203077356581198E-5      -0.009251716572674184
5.2200842442606745E-5     -0.009297310777179843
5.237091131940151E-5      -0.009337188225544768
5.254098019619627E-5      -0.009372246444877831
5.2711049072991036E-5     -0.009402485435187569
5.28811179497858E-5       -0.009427905196463004
5.3051186826580564E-5     -0.009449435808834995
5.322125570337533E-5      -0.009496773552542533
5.339132458017009E-5      -0.00953818077514378
5.3561393456964855E-5     -0.00957458755675293
5.373146233375962E-5      -0.009605993897376893
5.390153121055438E-5      -0.009632399797016482
5.407160008734914E-5      -0.009654762405168379
5.4241668964143904E-5     -0.009703961123055379
5.441173784093867E-5      -0.009746993705305225
5.4581806717733425E-5     -0.009784817301413779
5.475187559452819E-5      -0.00981743191138186
5.492194447132294E-5      -0.009844837535213528
5.50920133481177E-5       -0.009868007467108315
5.526208222491247E-5      -0.009919225527645532
5.543215110170724E-5      -0.009964007951928191
5.5602219978501995E-5     -0.010003328034151755
5.577228885529676E-5      -0.010037185774315007
5.594235773209153E-5      -0.01006558117242038
5.611242660888629E-5      -0.010089475860279168
5.628249548568105E-5      -0.010142922926254174
5.6452564362475814E-5     -0.010189622115429555
5.662263323927058E-5      -0.010230535059606033
5.679270211606533E-5      -0.010265661758786855
5.69627709928601E-5       -0.010295002212967959
5.7132839869654856E-5     -0.010319472164205822
5.730290874644962E-5      -0.01037542194557753
5.747297762324438E-5      -0.010424247859754102
5.764304650003915E-5      -0.010466865648785316
5.781311537683391E-5      -0.010503275312680721
5.7983184253628675E-5     -0.01053347685142733
5.815325313042344E-5      -0.01055830413454217
5.83233220072182E-5       -0.010617105217772416
5.8493390884012966E-5     -0.010668317541110629
5.866345976080773E-5      -0.010712774974076744
5.8833528637602494E-5     -0.010750477516668834
5.900359751439725E-5      -0.010781425168886947
5.9173666391192015E-5     -0.010806344279611347
5.934373526798678E-5      -0.010868411530615423
5.951380414478154E-5      -0.010922308046397764
5.96838730215763E-5       -0.010968760175839502
5.9853941898371064E-5     -0.011007767918941145
6.0024010775165814E-5     -0.0110393312757033
6.019407965196058E-5      -0.011064058994312839
6.036414852875534E-5      -0.011129876646685693
6.0534217405550106E-5     -0.011186791464331741
6.070428628234486E-5      -0.011235412195445072
6.087435515913962E-5      -0.01127573884001684
6.104442403593438E-5      -0.01130777139805139
6.121449291272915E-5      -0.011332062600190184
6.138456178952391E-5      -0.011402187492025284
6.155463066631868E-5      -0.01146246702220851
6.172469954311344E-5      -0.011513453921389987
6.18947684199082E-5       -0.011555148189559954
6.206483729670297E-5      -0.011587549826726218
6.223490617349773E-5      -0.01161124454474484
6.24049750502925E-5       -0.011686145436113333
6.257504392708726E-5      -0.01175007631922917
6.274511280388202E-5      -0.011803622905951591
6.291518168067679E-5      -0.011846785196269213
6.308525055747155E-5      -0.011879563190188545
6.325531943426631E-5      -0.011902628083059643
6.342538831106108E-5      -0.011982578276198197
6.359545718785583E-5      -0.012050354540082771
6.376552606465059E-5      -0.012106628070065049
6.393559494144536E-5      -0.012151398866135277
6.41056638182401E-5       -0.012184666928300772
6.427573269503487E-5      -0.01220720184568173
6.444580157182963E-5      -0.012292352517644855
6.461587044862441E-5      -0.01236411456418962
6.478593932541916E-5      -0.01242325757443459
6.495600820221393E-5      -0.012469781548381392
6.512607707900869E-5      -0.012503686486025962
6.529614595580345E-5      -0.012525814106986468
6.546621483259822E-5      -0.012616330081415692
6.5636283709393E-5        -0.01269225108784649
6.580635258618774E-5      -0.012754418845889706
6.597642146298251E-5      -0.01280283335554453
6.614649033977727E-5      -0.012837494616807709
6.631655921657204E-5      -0.012859275795128425
6.64866280933668E-5       -0.012955411840591883
6.665669697016156E-5      -0.013035734218089012
6.682676584695633E-5      -0.01310111609307225
6.699683472375108E-5      -0.013151557465529398
6.716690360054584E-5      -0.013187058335464519
6.73369724773406E-5       -0.013208484046088282
6.750704135413537E-5      -0.013310603491019288
6.767711023093013E-5      -0.013395639434430708
6.784717910772488E-5      -0.013464457219524259
6.801724798451965E-5      -0.013517056846304413
6.818731686131441E-5      -0.0135534383147667
6.835738573810918E-5      -0.01357442649766781
6.852745461490394E-5      -0.013683017694703517
6.86975234916987E-5       -0.013773158953747243
6.886759236849347E-5      -0.013845675147547958
6.903766124528822E-5      -0.013900566276103626
6.920773012208298E-5      -0.013937832339411404
6.937779899887774E-5      -0.013958230571616794
6.954786787567251E-5      -0.014073894890098748
6.971793675246727E-5      -0.014169609312202198
6.988800562926202E-5      -0.014246131072066551
7.005807450605679E-5      -0.014303460169690588
7.022814338285155E-5      -0.0143415966050739
7.039821225964631E-5      -0.014361213185600765
7.056828113644108E-5      -0.014484645199562392
7.073835001323584E-5      -0.014586460443425145
7.09084188900306E-5       -0.014667331724557444
7.107848776682537E-5      -0.014727259042960511
7.124855664362013E-5      -0.014766242398645317
7.14186255204149E-5       -0.014784876455564248
7.158869439720966E-5      -0.014916876074264307
7.175876327400443E-5      -0.015025377033551092
7.192883215079919E-5      -0.015110973997385521
7.209890102759395E-5      -0.015173666965764743
7.226896990438872E-5      -0.015213455938696486
7.243903878118348E-5      -0.01523088457147412
7.260910765797824E-5      -0.015372376382840875
7.277917653477301E-5      -0.015488225315538113
7.294924541156777E-5      -0.015578975024858794
7.311931428836252E-5      -0.015644625510805362
7.32893831651573E-5       -0.015685176773383918
7.345945204195205E-5      -0.015701138828398856
7.362952091874681E-5      -0.015853130814667334
7.379958979554158E-5      -0.015977066884842846
7.396965867233633E-5      -0.016073457054739344
7.413972754913108E-5      -0.016142301324352966
7.430979642592586E-5      -0.016183599693684728
7.44798653027206E-5       -0.016197831137189492
7.464993417951538E-5      -0.01636134872229101
7.482000305631013E-5      -0.016494154228586785
7.499007193310491E-5      -0.01659672663052466
7.516014080989968E-5      -0.01666906592810433
7.533020968669444E-5      -0.01671117212132043
7.55002785634892E-5       -0.016723492499366617
7.567034744028397E-5      -0.016899537006781616
7.584041631707873E-5      -0.017041997373075848
7.601048519387348E-5      -0.017151320887430852
7.618055407066824E-5      -0.017227507549847434
7.6350622947463E-5        -0.01727055736032125
7.652069182425776E-5      -0.01728090957573253
7.669076070105252E-5      -0.01747052603649538
7.686082957784729E-5      -0.017623441915910386
7.703089845464205E-5      -0.017740096470842296
7.72009673314368E-5       -0.017820489701293244
7.737103620823156E-5      -0.01786462160725932
7.754110508502633E-5      -0.017872915859542933
7.771117396182109E-5      -0.01807729144909991
7.788124283861586E-5      -0.018241586312134205
7.805131171541062E-5      -0.018366224119438633
7.822138059220538E-5      -0.018451204871015932
7.839144946900015E-5      -0.01849652856686077
7.856151834579491E-5      -0.01850251590545616
7.873158722258968E-5      -0.018722966414097018
7.890165609938444E-5      -0.018899724584801974
7.907172497617919E-5      -0.019033111116047576
7.924179385297395E-5      -0.01912312600783749
7.941186272976872E-5      -0.019169769260170496
7.958193160656348E-5      -0.01917313038589001
7.975200048335824E-5      -0.01941103934193475
7.992206936015301E-5      -0.01960143954011157
8.009213823694777E-5      -0.019744420493246415
8.026220711374252E-5      -0.019839982201344166
8.04322759905373E-5       -0.01988812466440238
8.060234486733205E-5      -0.019888580334486976
8.077241374412683E-5      -0.020145429161629275
8.094248262092158E-5      -0.020350725679596622
8.111255149771634E-5      -0.02050420234044762
8.12826203745111E-5       -0.02060585914418918
8.145268925130588E-5      -0.02065569609081316
8.162275812810063E-5      -0.020652923171934748
8.179282700489541E-5      -0.020930400250848386
8.196289588169016E-5      -0.021152019490745914
8.213296475848491E-5      -0.02131699088323519
8.230303363527969E-5      -0.021425314428317844
8.247310251207444E-5      -0.021476990125990823
8.26431713888692E-5       -0.02147045897451405
8.281324026566398E-5      -0.0217705816220966
8.298330914245874E-5      -0.02201023934853151
8.31533780192535E-5       -0.02218787315207118
8.332344689604827E-5      -0.02230348303272415
8.349351577284304E-5      -0.02235706899047984
8.36635846496378E-5       -0.022345941895005304
8.383365352643258E-5      -0.022671011399835645
8.400372240322733E-5      -0.022930755958486326
8.417379128002208E-5      -0.023122486440617075
8.434386015681686E-5      -0.023246202846226263
8.45139290336116E-5       -0.023301905175311652
8.468399791040637E-5      -0.023285230355783056
8.485406678720113E-5      -0.023637703537604637
8.50241356639959E-5       -0.02391982526626569
8.519420454079065E-5      -0.024127232469662804
8.536427341758541E-5      -0.024259925147806144
8.553434229438016E-5      -0.024317903300688195
8.570441117117493E-5      -0.024294553272058206
8.587448004796969E-5      -0.02467734380350955
8.604454892476445E-5      -0.02498451881680996
8.621461780155922E-5      -0.02520946465569264
8.638468667835397E-5      -0.025352181320161652
8.655475555514873E-5      -0.02541266881021537
8.67248244319435E-5       -0.025381282682166155
8.689489330873826E-5      -0.025797601259450895
8.706496218553302E-5      -0.02613299770747371
8.723503106232779E-5      -0.026377827582540862
8.740509993912255E-5      -0.026532090884653966
8.757516881591731E-5      -0.026595787613809783
8.774523769271208E-5      -0.02655530939858472
8.791530656950684E-5      -0.02700841053145229
8.80853754463016E-5       -0.027375444228464087
8.825544432309636E-5      -0.027642802118187596
8.842551319989112E-5      -0.027810484200630134
8.859558207668588E-5      -0.027878490475788036
8.876565095348065E-5      -0.027828248889745447
8.893571983027541E-5      -0.028321774855574407
8.910578870707019E-5      -0.028724374624236076
8.927585758386494E-5      -0.029017476141811965
8.94459264606597E-5       -0.029201079408306338
8.961599533745447E-5      -0.029275184423709574
8.978606421424923E-5      -0.029215431606382243
8.9956133091044E-5        -0.029753119638544233
9.012620196783876E-5      -0.03019546835742621
9.029627084463352E-5      -0.030518118181382507
9.046633972142827E-5      -0.03072106911041047
9.063640859822305E-5      -0.030804321144506035
9.08064774750178E-5       -0.03073716557112114
9.097654635181258E-5      -0.031322197740057046
9.114661522860733E-5      -0.03180827679443886
9.131668410540209E-5      -0.0321646940217111
9.148675298219686E-5      -0.03239144942187023
9.165682185899162E-5      -0.03248854299492086
9.182689073578638E-5      -0.03241867394768747
9.199695961258116E-5      -0.03305325489770611
9.216702848937591E-5      -0.03358649751328416
9.233709736617066E-5      -0.033981101001256106
9.250716624296544E-5      -0.03423706536161828
9.267723511976019E-5      -0.034354390594370454
9.284730399655495E-5      -0.03428943911992294
9.301737287334972E-5      -0.03497455186870054
9.31874417501445E-5       -0.03555747787364115
9.335751062693924E-5      -0.03599457955515948
9.3527579503734E-5        -0.036285856913250966
9.369764838052876E-5      -0.03643130994791587
9.386771725732352E-5      -0.03638201861279716
9.403778613411829E-5      -0.03711702664939942
9.420785501091305E-5      -0.03775057886265793
9.43779238877078E-5       -0.03823375520622259
9.454799276450256E-5      -0.03856655568009352
9.471806164129733E-5      -0.03874898028426482
9.488813051809209E-5      -0.03872902772712862
9.505819939488686E-5      -0.039511075900927464
9.522826827168162E-5      -0.04019365102699987
9.539833714847638E-5      -0.04072475181373446
9.556840602527113E-5      -0.04110437826113102
9.57384749020659E-5       -0.04133253036918908
9.590854377886066E-5      -0.04135775030940123
9.607861265565543E-5      -0.04218092301234801
9.62486815324502E-5       -0.04290718630390049
9.641875040924495E-5      -0.04348508235556021
9.658881928603972E-5      -0.043914611167323404
9.675888816283448E-5      -0.04419577273919173
9.692895703962925E-5      -0.04428259965313886
9.709902591642401E-5      -0.04513694420205368
9.726909479321879E-5      -0.04589680257859275
9.743916367001354E-5      -0.046516207364732706
9.76092325468083E-5       -0.04699515856047289
9.777930142360306E-5      -0.047333656165814496
9.794937030039783E-5      -0.04749663703272884
9.811943917719258E-5      -0.04836762409418678
9.828950805398736E-5      -0.049146207609729244
9.84595769307821E-5       -0.04979732443133024
9.862964580757686E-5      -0.050320974558993196
9.879971468437162E-5      -0.05071715799271403
9.896978356116637E-5      -0.05096592920777812
9.913985243796113E-5      -0.051835095389476754
9.930992131475591E-5      -0.052614428811134414
9.947999019155066E-5      -0.05328398394800125
9.965005906834544E-5      -0.05384376080009725
9.982012794514019E-5      -0.054293759367414984
9.999019682193495E-5      -0.054630501528734866
1.0016026569872972E-4     -0.05547806358670262
1.003303345755245E-4      -0.05624040647302623
1.0050040345231925E-4     -0.05691405206644156
1.0067047232911402E-4     -0.057499000366968187
1.0084054120590877E-4     -0.05799525137459526
1.0101061008270354E-4     -0.05841377320082812
1.011806789594983E-4      -0.0592227072661789
1.0135074783629308E-4     -0.05995433095263959
1.0152081671308783E-4     -0.0606196123716827
1.016908855898826E-4      -0.061218551523320196
1.0186095446667736E-4     -0.0617511484075464
1.0203102334347212E-4     -0.062238159664991216
1.0220109222026688E-4     -0.06299755828034283
1.0237116109706166E-4     -0.06369113282185108
1.0254122997385641E-4     -0.06433963993009621
1.0271129885065116E-4     -0.06494307960510003
1.0288136772744593E-4     -0.06550145184685494
1.0305143660424069E-4     -0.06603965316676624
1.0322150548103545E-4     -0.06674589196985031
1.0339157435783022E-4     -0.06740047894581928
1.0356164323462497E-4     -0.06802831060603907
1.0373171211141973E-4     -0.06862938695052459
1.0390178098821448E-4     -0.0692037079792711
1.0407184986500925E-4     -0.06977537459251276
1.0424191874180401E-4     -0.0704310309015383
1.0441198761859879E-4     -0.07105019209652244
1.0458205649539355E-4     -0.07165695907766062
1.047521253721883E-4      -0.07225133184497373
1.0492219424898308E-4     -0.07283331039845568
1.0509226312577784E-4     -0.07342302200647374
1.052623320025726E-4      -0.07403458166079326
1.0543240087936737E-4     -0.07462394485451582