% Model:              ModelMicPlate_Rh100um_hg10um_Refined_MaterialDefPolySilicon.mph
% Version:            COMSOL 6.3.0.335
% Date:               May 21 2025, 14:31
% Dimension:          1
% Nodes:              708
% Expressions:        1
% Description:        Line graph
% Arc length (m)          real(p)
0                         -0.014652221195207406
4.2016806722688943E-7     -0.014651144457961044
8.403361344537784E-7      -0.014649512993745591
1.260504201680668E-6      -0.014647326802561037
1.6806722689075569E-6     -0.014644585884407393
2.1008403361344462E-6     -0.01464129023928465
2.521008403361336E-6      -0.014637439867192816
2.941176470588225E-6      -0.014633034768131886
3.361344537815116E-6      -0.014627658711716089
3.781512605042006E-6      -0.014621569212944352
4.2016806722688975E-6     -0.01461476627181667
4.621848739495788E-6      -0.014607249888333049
5.0420168067226796E-6     -0.014599020062493487
5.46218487394957E-6       -0.01459007679429798
5.882352941176461E-6      -0.014580420083746536
6.302521008403353E-6      -0.014570030141069413
6.722689075630246E-6      -0.014558948714568379
7.1428571428571385E-6     -0.014547175804243426
7.563025210084031E-6      -0.014534711410094566
7.983193277310924E-6      -0.01452155553212179
8.403361344537817E-6      -0.0145077081703251
8.823529411764708E-6      -0.014493169324704498
9.2436974789916E-6        -0.014477873374014138
9.66386554621849E-6       -0.014461896332680062
1.0084033613445381E-5     -0.01444523820070226
1.0504201680672271E-5     -0.014427898978080738
1.0924369747899162E-5     -0.014409878664815495
1.1344537815126054E-5     -0.014391177260906529
1.1764705882352944E-5     -0.014371794766353842
1.2184873949579835E-5     -0.014351676755526985
1.2605042016806726E-5     -0.014330898586832407
1.3025210084033616E-5     -0.014309460260270098
1.3445378151260506E-5     -0.014287361775840068
1.3865546218487399E-5     -0.014264603133542312
1.4285714285714289E-5     -0.014241184333376828
1.470588235294118E-5      -0.01421710537534362
1.5126050420168068E-5     -0.014192327883794417
1.5546218487394955E-5     -0.014166903442002759
1.5966386554621844E-5     -0.014140832049968638
1.638655462184873E-5      -0.014114113707692066
1.6806722689075617E-5     -0.014086748415173034
1.7226890756302507E-5     -0.014058736172411544
1.7647058823529393E-5     -0.014030076979407599
1.8067226890756286E-5     -0.014000822391190226
1.8487394957983176E-5     -0.013970937842452444
1.8907563025210073E-5     -0.013940423333194247
1.9327731092436962E-5     -0.013909278863415645
1.974789915966386E-5      -0.013877504433116635
2.0168067226890752E-5     -0.013845100042297212
2.0588235294117642E-5     -0.013812065690957382
2.1008403361344535E-5     -0.013778486449485294
2.1428571428571425E-5     -0.013744312772245307
2.1848739495798315E-5     -0.013709544659237414
2.2268907563025204E-5     -0.013674182110461619
2.2689075630252094E-5     -0.013638225125917927
2.3109243697478987E-5     -0.013601673705606328
2.3529411764705877E-5     -0.013564527849526829
2.394957983193277E-5      -0.013526848604183114
2.436974789915966E-5      -0.013488612494219416
2.478991596638655E-5      -0.013449819519635725
2.521008403361344E-5      -0.01341046968043205
2.5630252100840332E-5     -0.013370562976608389
2.6050420168067226E-5     -0.013330099408164738
2.6470588235294115E-5     -0.0132890789751011
2.6890756302521005E-5     -0.013247590702058706
2.7310924369747895E-5     -0.013205581306409045
2.7731092436974788E-5     -0.013163050788152102
2.8151260504201674E-5     -0.01311999914728789
2.8571428571428567E-5     -0.01307642638381641
2.899159663865546E-5      -0.01303233249773765
2.941176470588235E-5      -0.012987717489051621
2.983193277310924E-5      -0.012942664856532456
3.025210084033613E-5      -0.012897149899536973
3.067226890756302E-5      -0.012851172618065164
3.109243697478991E-5      -0.01280473301211704
3.1512605042016806E-5     -0.0127578310816926
3.1932773109243696E-5     -0.012710466826791837
3.2352941176470585E-5     -0.012662640247414758
3.2773109243697475E-5     -0.012614322167203406
3.3193277310924365E-5     -0.01256560523817581
3.3613445378151255E-5     -0.012516489460331957
3.4033613445378144E-5     -0.012466974833671861
3.445378151260504E-5      -0.01241706135819552
3.487394957983193E-5      -0.01236674903390293
3.529411764705882E-5      -0.01231603786079409
3.571428571428571E-5      -0.012264886966449357
3.61344537815126E-5       -0.012213383939388724
3.6554621848739496E-5     -0.012161528779612176
3.697478991596638E-5      -0.01210932148711973
3.7394957983193276E-5     -0.012056762061911377
3.781512605042017E-5      -0.012003850503987118
3.8235294117647055E-5     -0.011950586813346953
3.8655462184873945E-5     -0.011896991431710784
3.907563025210084E-5      -0.011843099933034068
3.949579831932773E-5      -0.0117889123173168
3.991596638655462E-5      -0.011734428584558986
4.033613445378151E-5      -0.011679648734760623
4.075630252100841E-5      -0.01162457276792171
4.11764705882353E-5       -0.01156920068404225
4.1596638655462194E-5     -0.011513559777445469
4.2016806722689084E-5     -0.011457690610975218
4.2436974789915967E-5     -0.011401593184631485
4.285714285714286E-5      -0.011345267498414283
4.327731092436975E-5      -0.011288713552323606
4.369747899159664E-5      -0.011231931346359452
4.411764705882353E-5      -0.011174920880521824
4.453781512605042E-5      -0.011117711511652771
4.495798319327731E-5      -0.01106034341937004
4.53781512605042E-5       -0.011002816603673625
4.5798319327731085E-5     -0.010945131064563535
4.621848739495798E-5      -0.010887286802039764
4.6638655462184864E-5     -0.010829283816102313
4.7058823529411754E-5     -0.010771122106751184
4.747899159663865E-5      -0.010712847749540807
4.789915966386554E-5      -0.010654491273365124
4.831932773109242E-5      -0.01059605267822413
4.873949579831932E-5      -0.01053753196411783
4.915966386554621E-5      -0.010478929131046224
4.95798319327731E-5       -0.010420244179009303
4.999999999999999E-5      -0.010361477108007078
5.042016806722688E-5      -0.01030268701759323
5.0840336134453775E-5     -0.01024389893617207
5.1260504201680665E-5     -0.010185112863743594
5.1680672268907555E-5     -0.01012632880030781
5.210084033613445E-5      -0.010067546745864709
5.252100840336134E-5      -0.010008766700414297
5.294117647058823E-5      -0.00994998866395657
5.336134453781512E-5      -0.009891286874127362
5.378151260504201E-5      -0.0098326797599524
5.420168067226891E-5      -0.009774167321431682
5.462184873949579E-5      -0.009715749558565209
5.5042016806722686E-5     -0.009657426471352985
5.546218487394958E-5      -0.009599198059795004
5.5882352941176466E-5     -0.009541064323891268
5.6302521008403355E-5     -0.009483117819530772
5.6722689075630245E-5     -0.009425369339664137
5.714285714285714E-5      -0.009367818884291355
5.7563025210084025E-5     -0.009310466453412434
5.798319327731092E-5      -0.009253312047027371
5.840336134453782E-5      -0.009196355665136163
5.88235294117647E-5       -0.009139597307738815
5.92436974789916E-5       -0.009083151497316592
5.966386554621848E-5      -0.009027020714512913
6.008403361344538E-5      -0.00897120495932777
6.050420168067226E-5      -0.00891570423176117
6.0924369747899156E-5     -0.00886051853181311
6.134453781512605E-5      -0.00880564785948359
6.176470588235294E-5      -0.008751092214772611
6.218487394957983E-5      -0.008696992864963678
6.260504201680672E-5      -0.008643343658355883
6.302521008403361E-5      -0.008590144594949223
6.34453781512605E-5       -0.008537395674743698
6.386554621848739E-5      -0.008485096897739311
6.428571428571429E-5      -0.00843324826393606
6.470588235294117E-5      -0.008381849773333942
6.512605042016805E-5      -0.008331076138984202
6.554621848739495E-5      -0.008280912506217243
6.596638655462185E-5      -0.008231358875033058
6.638655462184873E-5      -0.008182415245431653
6.680672268907563E-5      -0.008134081617413025
6.722689075630252E-5      -0.008086357990977172
6.76470588235294E-5       -0.008039244366124099
6.806722689075629E-5      -0.007992959027995458
6.848739495798319E-5      -0.007947477887867597
6.890756302521008E-5      -0.007902800945740512
6.932773109243696E-5      -0.007858928201614206
6.974789915966386E-5      -0.007815859655488679
7.016806722689076E-5      -0.007773595307363929
7.058823529411764E-5      -0.0077321351572399565
7.100840336134452E-5      -0.007691777252068875
7.142857142857142E-5      -0.007652460588654972
7.184873949579832E-5      -0.007614185166998245
7.22689075630252E-5       -0.007576950987098698
7.26890756302521E-5       -0.007540758048956328
7.310924369747899E-5      -0.007505606352571137
7.352941176470588E-5      -0.0074714958979431225
7.394957983193276E-5      -0.007438909008902523
7.436974789915967E-5      -0.007407665846341942
7.478991596638655E-5      -0.007377766410261373
7.521008403361343E-5      -0.007349210700660821
7.563025210084034E-5      -0.0073219987175402864
7.605042016806723E-5      -0.007296130460899766
7.647058823529412E-5      -0.00727160593073926
7.689075630252102E-5      -0.007249337009402191
7.73109243697479E-5       -0.007228704878495414
7.773109243697479E-5      -0.007209709538018926
7.815126050420167E-5      -0.007192350987972731
7.857142857142857E-5      -0.007176629228356828
7.899159663865546E-5      -0.007162544259171214
7.941176470588235E-5      -0.0071500960804158934
7.983193277310923E-5      -0.007142746980925589
8.025210084033613E-5      -0.007137208131551507
8.067226890756302E-5      -0.007133479532293642
8.10924369747899E-5       -0.007131561183151998
8.151260504201682E-5      -0.007131453084126573
8.19327731092437E-5       -0.007133155235217369
8.23529411764706E-5       -0.007136667636424386
8.277310924369749E-5      -0.0071470728121904
8.319327731092437E-5      -0.007160669539837848
8.361344537815127E-5      -0.007177457819366724
8.403361344537815E-5      -0.007197437650777033
8.445378151260505E-5      -0.007220609034068773
8.487394957983195E-5      -0.007246971969241944
8.529411764705883E-5      -0.007276526456296546
8.571428571428573E-5      -0.007310620636477192
8.613445378151261E-5      -0.007350164053169089
8.655462184873949E-5      -0.007395156706372232
8.697478991596639E-5      -0.007445598596086629
8.739495798319329E-5      -0.007501489722312276
8.781512605042018E-5      -0.007562830085049171
8.823529411764706E-5      -0.007629619684297316
8.865546218487395E-5      -0.007701634680279963
8.907563025210084E-5      -0.0077814006167049345
8.949579831932774E-5      -0.007868917493572226
8.991596638655461E-5      -0.007964185310881843
9.033613445378152E-5      -0.008067204068633782
9.075630252100842E-5      -0.008177973766828044
9.11764705882353E-5       -0.008296494405464629
9.15966386554622E-5       -0.008424776046609656
9.201680672268908E-5      -0.008564320414094167
9.243697478991596E-5      -0.008715127507918153
9.285714285714286E-5      -0.008877197328081628
9.327731092436976E-5      -0.00905052987458458
9.369747899159665E-5      -0.009235125147427014
9.411764705882353E-5      -0.009430983146608927
9.453781512605042E-5      -0.009641411575754367
9.495798319327731E-5      -0.009868276178371823
9.53781512605042E-5       -0.010111576954461287
9.57983193277311E-5       -0.01037131390402277
9.621848739495799E-5      -0.01064748702705626
9.663865546218487E-5      -0.010940096323561766
9.705882352941177E-5      -0.011249141793539284
9.747899159663867E-5      -0.0115670582474679
9.789915966386555E-5      -0.011900619470906017
9.831932773109245E-5      -0.01224982546385362
9.873949579831933E-5      -0.012614676226310729
9.915966386554623E-5      -0.01299517175827733
9.957983193277312E-5      -0.013391312059753425
1.0E-4                    -0.013803097130739019
1.004264392324094E-4      -0.01422714864025801
1.0085287846481877E-4     -0.01465178943296622
1.0127931769722815E-4     -0.015077019508863646
1.0170575692963754E-4     -0.015502838867950288
1.0213219616204692E-4     -0.015929247510226154
1.025586353944563E-4      -0.016356245435691228
1.0298507462686569E-4     -0.016783832644345527
1.0341151385927508E-4     -0.01721242174755013
1.0383795309168445E-4     -0.017636373713907336
1.0426439232409383E-4     -0.01805568854341714
1.0469083155650321E-4     -0.018470366236079547
1.0511727078891259E-4     -0.01888040679189456
1.0554371002132197E-4     -0.01928581021086217
1.0597014925373135E-4     -0.01968657649298238
1.0639658848614073E-4     -0.02008454859804334
1.0682302771855012E-4     -0.020477552024732663
1.0724946695095948E-4     -0.020865586773050344
1.0767590618336888E-4     -0.02124865284299639
1.0810234541577824E-4     -0.021626750234570804
1.0852878464818763E-4     -0.02199987894777357
1.0895522388059701E-4     -0.022368038982604706
1.093816631130064E-4      -0.022736163392908446
1.0980810234541578E-4     -0.02310081057833527
1.1023454157782515E-4     -0.02346198053888517
1.1066098081023454E-4     -0.023819673274558154
1.1108742004264393E-4     -0.02417388878535423
1.115138592750533E-4      -0.024524627071273376
1.1194029850746269E-4     -0.02487188813231561
1.1236673773987208E-4     -0.02521719518606175
1.1279317697228145E-4     -0.025559621574420516
1.1321961620469083E-4     -0.025899167297391903
1.1364605543710021E-4     -0.026235832354975914
1.1407249466950959E-4     -0.02656961674717255
1.1449893390191897E-4     -0.026900520473981806
1.1492537313432836E-4     -0.027228543535403688
1.1535181236673775E-4     -0.027554384963583728
1.1577825159914712E-4     -0.027877706248908486
1.162046908315565E-4      -0.028198507391377973
1.1663113006396588E-4     -0.028516788390992177
1.1705756929637526E-4     -0.028832549247751124
1.1748400852878464E-4     -0.029145789961654775
1.1791044776119402E-4     -0.029456510532703158
1.1833688699360342E-4     -0.029764684830833683
1.187633262260128E-4      -0.030070280097709016
1.1918976545842218E-4     -0.030373296333329143
1.1961620469083157E-4     -0.03067373353769408
1.2004264392324095E-4     -0.030971591710803825
1.2046908315565034E-4     -0.03126687085265836
1.2089552238805972E-4     -0.03155957096325771
1.2132196162046911E-4     -0.031850451616384175
1.2174840085287848E-4     -0.03213867113754548
1.2217484008528786E-4     -0.032424229526741656
1.2260127931769724E-4     -0.03270712678397267
1.2302771855010662E-4     -0.03298736290923854
1.23454157782516E-4       -0.03326493790253926
1.2388059701492538E-4     -0.03353985176387483
1.2430703624733477E-4     -0.033812558689485614
1.2473347547974415E-4     -0.03408271312618155
1.2515991471215353E-4     -0.034350315073962606
1.255863539445629E-4      -0.034615364532828805
1.260127931769723E-4      -0.03487786150278015
1.2643923240938167E-4     -0.035137805983816606
1.2686567164179105E-4     -0.03539519797593821
1.2729211087420043E-4     -0.035649602004101354
1.2771855010660981E-4     -0.035901479789664056
1.281449893390192E-4      -0.03615083133262632
1.2857142857142858E-4     -0.036397656632988155
1.2899786780383796E-4     -0.03664195569074956
1.2942430703624734E-4     -0.03688372850591052
1.2985074626865672E-4     -0.037122975078471045
1.302771855010661E-4      -0.03735945914453188
1.3070362473347548E-4     -0.037593284790038164
1.3113006396588486E-4     -0.037824452014989886
1.3155650319829424E-4     -0.038052960819387055
1.3198294243070362E-4     -0.03827881120322968
1.32409381663113E-4       -0.03850200316651774
1.3283582089552239E-4     -0.03872253670925125
1.3326226012793177E-4     -0.03894062469049117
1.3368869936034115E-4     -0.039156067331759616
1.3411513859275053E-4     -0.0393688646330566
1.345415778251599E-4      -0.03957901659438209
1.349680170575693E-4      -0.039786523215736135
1.3539445628997867E-4     -0.03999138449711869
1.3582089552238805E-4     -0.040193600438529785
1.3624733475479743E-4     -0.040393090580000644
1.3667377398720682E-4     -0.040589934529121456
1.371002132196162E-4      -0.040784132285892206
1.3752665245202558E-4     -0.040975683850312895
1.3795309168443496E-4     -0.04116458922238356
1.3837953091684434E-4     -0.041350848402104144
1.3880597014925372E-4     -0.04153446138947469
1.392324093816631E-4      -0.0417155398815539
1.3965884861407248E-4     -0.041893940175645995
1.4008528784648186E-4     -0.04206966227175097
1.4051172707889124E-4     -0.042242706169868804
1.4093816631130063E-4     -0.04241307186999954
1.4136460554371E-4        -0.04258075937214313
1.417910447761194E-4      -0.04274576867629962
1.422174840085288E-4      -0.042908176344273595
1.4264392324093815E-4     -0.04306795426312218
1.4307036247334753E-4     -0.04322510243284536
1.4349680170575694E-4     -0.04337962085344314
1.4392324093816635E-4     -0.04353150952491554
1.443496801705757E-4      -0.04368076844726252
1.447761194029851E-4      -0.04382739762048411
1.452025586353945E-4      -0.04397130077389661
1.4562899786780387E-4     -0.04411258607102374
1.4605543710021325E-4     -0.04425125351186548
1.4648187633262263E-4     -0.04438730309642184
1.4690831556503201E-4     -0.044520734824692834
1.473347547974414E-4      -0.04465154869667843
1.4776119402985075E-4     -0.04477974471237866
1.4818763326226013E-4     -0.044905335984519096
1.486140724946695E-4      -0.04502830430013355
1.490405117270789E-4      -0.04514864965922202
1.4946695095948827E-4     -0.04526637206178452
1.4989339019189766E-4     -0.04538147150782105
1.5031982942430704E-4     -0.04549394799733158
1.5074626865671642E-4     -0.04560380153031614
1.511727078891258E-4      -0.04571123616049666
1.5159914712153518E-4     -0.045816065781852
1.5202558635394456E-4     -0.04591829039438216
1.5245202558635394E-4     -0.04601790999808715
1.5287846481876332E-4     -0.04611492459296698
1.533049040511727E-4      -0.04620933417902161
1.5373134328358208E-4     -0.046301138756251074
1.5415778251599147E-4     -0.04639043497317312
1.5458422174840087E-4     -0.04647719870865319
1.5501066098081023E-4     -0.04656142996269126
1.5543710021321964E-4     -0.04664312873528735
1.5586353944562902E-4     -0.04672229502644146
1.5628997867803837E-4     -0.04679892883615357
1.5671641791044778E-4     -0.04687303016442369
1.5714285714285716E-4     -0.0469445725859563
1.5756929637526654E-4     -0.047013616459262705
1.5799573560767592E-4     -0.04708016178434291
1.584221748400853E-4      -0.04714420856119691
1.5884861407249468E-4     -0.0472057567898247
1.5927505330490407E-4     -0.04726480647022628
1.5970149253731345E-4     -0.047321357602401665
1.6012793176972283E-4     -0.047375376294806155
1.605543710021322E-4      -0.047426961861877656
1.609808102345416E-4      -0.047476114303616195
1.6140724946695097E-4     -0.04752283362002174
1.6183368869936035E-4     -0.047567119811094336
1.6226012793176973E-4     -0.047608972876833924
1.6268656716417911E-4     -0.04764839281724055
1.631130063965885E-4      -0.0476853593045297
1.6353944562899788E-4     -0.047719905255374916
1.6396588486140726E-4     -0.04775203066977622
1.6439232409381664E-4     -0.0477817355477336
1.6481876332622602E-4     -0.04780901988924708
1.652452025586354E-4      -0.04783388369431661
1.6567164179104478E-4     -0.047856326962942244
1.6609808102345416E-4     -0.047876622222748265
1.6652452025586354E-4     -0.04789455613919713
1.6695095948827292E-4     -0.04791012871228884
1.673773987206823E-4      -0.04792333994202339
1.6780383795309169E-4     -0.04793418982840081
1.6823027718550107E-4     -0.047942678371421056
1.6865671641791045E-4     -0.047948805571084156
1.6908315565031983E-4     -0.04795249734547273
1.695095948827292E-4      -0.0479539582898473
1.699360341151386E-4      -0.04795318840420786
1.7036247334754797E-4     -0.04795018768855442
1.7078891257995735E-4     -0.047944956142887
1.7121535181236673E-4     -0.04793749376720555
1.7164179104477612E-4     -0.04792780056151011
1.720682302771855E-4      -0.04791588797457128
1.7249466950959488E-4     -0.047901718342172626
1.7292110874200426E-4     -0.047885291664314114
1.7334754797441364E-4     -0.04786660794099576
1.7377398720682302E-4     -0.047845667172217575
1.742004264392324E-4      -0.04782246935797953
1.7462686567164178E-4     -0.047797014498281644
1.7505330490405116E-4     -0.04776963612205681
1.7547974413646055E-4     -0.04774013263714839
1.7590618336886993E-4     -0.047708504043556366
1.763326226012793E-4      -0.04767475034128074
1.767590618336887E-4      -0.04763887153032155
1.7718550106609807E-4     -0.04760086761067874
1.7761194029850745E-4     -0.04756073858235235
1.7803837953091683E-4     -0.047518292945244574
1.784648187633262E-4      -0.04747384181008801
1.788912579957356E-4      -0.047427385176882664
1.7931769722814497E-4     -0.047378923045628525
1.7974413646055436E-4     -0.04732845541632561
1.8017057569296374E-4     -0.047275982288973895
1.8059701492537312E-4     -0.047221503663573396
1.810234541577825E-4      -0.04716494025871606
1.8144989339019188E-4     -0.04710640388840177
1.8187633262260126E-4     -0.04704589455263051
1.8230277185501064E-4     -0.04698341225140228
1.8272921108742002E-4     -0.046918956984717125
1.831556503198294E-4      -0.04685252875257499
1.8358208955223879E-4     -0.0467841275549759
1.8400852878464817E-4     -0.0467137869489974
1.8443496801705755E-4     -0.04664158724025943
1.8486140724946693E-4     -0.046567528428761974
1.852878464818763E-4      -0.04649161051450506
1.857142857142857E-4      -0.04641383349748869
1.8614072494669507E-4     -0.04633419737771282
1.8656716417910445E-4     -0.046252702155177496
1.8699360341151383E-4     -0.04616936143628931
1.8742004264392321E-4     -0.04608422468573379
1.878464818763326E-4      -0.04599729190351092
1.8827292110874198E-4     -0.04590856308962072
1.8869936034115136E-4     -0.045818038244063185
1.8912579957356074E-4     -0.045725717366838295
1.8955223880597012E-4     -0.04563160045794607
1.899786780383795E-4      -0.045535878625751654
1.904051172707889E-4      -0.04543844377364971
1.9083155650319826E-4     -0.04533929590164024
1.9125799573560764E-4     -0.04523843500972325
1.9168443496801702E-4     -0.045135861097898744
1.9211087420042643E-4     -0.045031574166166696
1.9253731343283581E-4     -0.04492557421452714
1.929637526652452E-4      -0.04481816162280871
1.9339019189765455E-4     -0.044709142891647735
1.9381663113006393E-4     -0.044598518021044226
1.942430703624733E-4      -0.044486287010998174
1.9466950959488272E-4     -0.04437244986150961
1.9509594882729207E-4     -0.044257006572578486
1.9552238805970145E-4     -0.044139957144204836
1.9594882729211084E-4     -0.04402121744087006
1.9637526652452024E-4     -0.04390105789860657
1.968017057569296E-4      -0.043779478517414344
1.97228144989339E-4       -0.043656479297293396
1.9765458422174841E-4     -0.04353206023824374
1.980810234541578E-4      -0.04340622134026534
1.9850746268656718E-4     -0.04327896260335823
1.9893390191897656E-4     -0.0431501167700977
1.9936034115138594E-4     -0.0430198954544481
1.9978678038379532E-4     -0.042888298656409404
2.002132196162047E-4      -0.042755326375981645
2.0063965884861408E-4     -0.042620978613164814
2.0106609808102346E-4     -0.042485255367958885
2.0149253731343284E-4     -0.04234815664036389
2.0191897654584222E-4     -0.042209678334096154
2.023454157782516E-4      -0.04206997680890925
2.0277185501066093E-4     -0.04192905206480317
2.0319829424307034E-4     -0.04178690410177791
2.0362473347547972E-4     -0.04164353291983351
2.0405117270788908E-4     -0.04149893851896992
2.0447761194029846E-4     -0.04135312089918717
2.0490405117270784E-4     -0.041205958808640045
2.0533049040511725E-4     -0.04105765591999493
2.057569296375266E-4      -0.040908212233251806
2.06183368869936E-4       -0.040757627748410685
2.0660980810234542E-4     -0.04060590246547158
2.070362473347548E-4      -0.04045303638443445
2.0746268656716418E-4     -0.04029902950529933
2.0788912579957356E-4     -0.04014394531455258
2.0831556503198294E-4     -0.039987837954966986
2.087420042643923E-4      -0.03983070742654257
2.091684434968017E-4      -0.03967255372927932
2.0959488272921106E-4     -0.03951337686317724
2.1002132196162044E-4     -0.03935317682823632
2.1044776119402982E-4     -0.039191953624456585
2.108742004264392E-4      -0.03902972568944066
2.1130063965884858E-4     -0.03886659383242709
2.1172707889125793E-4     -0.03870255805341587
2.1215351812366734E-4     -0.038537618352406995
2.1257995735607672E-4     -0.038371774729400496
2.130063965884861E-4      -0.038205027184396334
2.1343283582089549E-4     -0.03803737571739454
2.1385927505330487E-4     -0.03786891826644326
2.1428571428571422E-4     -0.03769966228983637
2.147121535181236E-4      -0.037529607787573895
2.1513859275053298E-4     -0.03735875475965581
2.155650319829424E-4      -0.03718710320608215
2.1599147121535174E-4     -0.03701465312685287
2.1641791044776113E-4     -0.036841404521968
2.168443496801705E-4      -0.03666749516438528
2.172707889125799E-4      -0.03649291888291572
2.1769722814498927E-4     -0.03631767567755934
2.1812366737739865E-4     -0.03614176554831613
2.1855010660980803E-4     -0.03596518849518609
2.1897654584221744E-4     -0.03578794451816921
2.1940298507462682E-4     -0.03561003361726551
2.1982942430703623E-4     -0.03543155835207078
2.2025586353944558E-4     -0.03525254073092918
2.2068230277185494E-4     -0.0350729807538407
2.2110874200426437E-4     -0.03489287842080533
2.2153518123667375E-4     -0.03471223373182311
2.2196162046908313E-4     -0.034531046686893996
2.2238805970149251E-4     -0.034349317286018005
2.228144989339019E-4      -0.03416715676096413
2.2324093816631128E-4     -0.03398457047133616
2.2366737739872063E-4     -0.03380155841713407
2.2409381663113E-4        -0.03361812059835787
2.245202558635394E-4      -0.033434257015007574
2.2494669509594877E-4     -0.03324996766708315
2.2537313432835815E-4     -0.033065252554584625
2.2579957356076756E-4     -0.032880459844460044
2.2622601279317692E-4     -0.03269532863956427
2.2665245202558627E-4     -0.0325098589398973
2.270788912579957E-4      -0.03232405074545913
2.275053304904051E-4      -0.03213790405624978
2.2793176972281447E-4     -0.03195141887226922
2.2835820895522385E-4     -0.031764595193517466
2.2878464818763323E-4     -0.03157763114983231
2.292110874200426E-4      -0.031390550080192696
2.29637526652452E-4       -0.031203351984598636
2.3006396588486137E-4     -0.03101603686305013
2.3049040511727075E-4     -0.030828604715547193
2.3091684434968014E-4     -0.030641055542089787
2.3134328358208952E-4     -0.030453389342677946
2.3176972281449892E-4     -0.030265389254577724
2.3219616204690828E-4     -0.030077392170158836
2.3262260127931766E-4     -0.029889398089421267
2.3304904051172707E-4     -0.029701407012365025
2.3347547974413645E-4     -0.02951341893899012
2.3390191897654586E-4     -0.02932543386929653
2.3432835820895524E-4     -0.029137451803284274
2.3475479744136462E-4     -0.028949335381599273
2.3518123667377397E-4     -0.028761357557135308
2.3560767590618333E-4     -0.028573518329892383
2.3603411513859274E-4     -0.028385817699870496
2.364605543710021E-4      -0.028198255667069655
2.3688699360341147E-4     -0.028010832231489844
2.3731343283582085E-4     -0.027823547393131077
2.3773987206823026E-4     -0.027636272858917767
2.381663113006396E-4      -0.0274492394650565
2.38592750533049E-4       -0.02726244721154727
2.390191897654584E-4      -0.027075896098390083
2.3944562899786778E-4     -0.026889586125584945
2.3987206823027716E-4     -0.026703517293131838
2.4029850746268655E-4     -0.026517689601030774
2.4072494669509595E-4     -0.026332154663818323
2.4115138592750533E-4     -0.026146967946883978
2.415778251599147E-4      -0.025962129450227734
2.420042643923241E-4      -0.025777639173849603
2.4243070362473348E-4     -0.025593497117749588
2.4285714285714283E-4     -0.025409703281927667
2.432835820895522E-4      -0.02522625766638386
2.4371002132196162E-4     -0.025043384544992622
2.44136460554371E-4       -0.024860959200575933
2.445628997867804E-4      -0.024678981633133777
2.4498933901918976E-4     -0.02449745184266617
2.4541577825159915E-4     -0.024316369829173116
2.458422174840085E-4      -0.02413573559265459
2.462686567164179E-4      -0.02395554913311062
2.466950959488273E-4      -0.023776046039916003
2.4712153518123667E-4     -0.023597132595354016
2.47547974413646E-4       -0.02341880879942466
2.4797441364605543E-4     -0.023241074652127942
2.4840085287846476E-4     -0.023063930153463856
2.4882729211087414E-4     -0.0228873753034324
2.492537313432835E-4      -0.022711410102033574
2.496801705756929E-4      -0.022536299092496343
2.501066098081023E-4      -0.022361876968032695
2.5053304904051166E-4     -0.022188143728642626
2.5095948827292104E-4     -0.022015099374326143
2.513859275053304E-4      -0.02184274390508325
2.518123667377398E-4      -0.021671077320913924
2.522388059701492E-4      -0.021500099621818192
2.5266524520255857E-4     -0.02132995870208975
2.5309168443496795E-4     -0.021160673501394625
2.5351812366737733E-4     -0.02099224401973281
2.5394456289978677E-4     -0.02082467025710431
2.543710021321961E-4      -0.020657952213509134
2.5479744136460553E-4     -0.02049208988894726
2.552238805970149E-4      -0.02032708328341871
2.556503198294243E-4      -0.020163115290292907
2.560767590618336E-4      -0.02000005161378232
2.56503198294243E-4       -0.019837892253886952
2.569296375266524E-4      -0.019676637210606793
2.5735607675906176E-4     -0.019516286483941856
2.5778251599147114E-4     -0.01935684007389213
2.582089552238805E-4      -0.019198297980457624
2.586353944562899E-4      -0.0190408645221165
2.590618336886993E-4      -0.018884542564764604
2.5948827292110867E-4     -0.018729332108401935
2.599147121535181E-4      -0.018575233153028493
2.6034115138592743E-4     -0.018422245698644285
2.6076759061833686E-4     -0.018270369745249298
2.6119402985074624E-4     -0.01811960529284354
2.616204690831556E-4      -0.017969560232074216
2.62046908315565E-4       -0.017820748991074484
2.624733475479744E-4      -0.01767317156984434
2.6289978678038377E-4     -0.01752682796838378
2.6332622601279315E-4     -0.01738171818669282
2.6375266524520253E-4     -0.017237842224771434
2.641791044776119E-4      -0.017095200082619645