% Model:              ModelMicPlate_Rh100um_hg10um_Refined_MaterialDefPolySilicon.mph
% Version:            COMSOL 6.3.0.420
% Date:               Aug 12 2025, 09:09
% Dimension:          1
% Nodes:              708
% Expressions:        1
% Description:        Line graph
% Arc length (m)          real(p)
0                         0.0274689790394785
4.2016806722688943E-7     0.027468274928655233
8.403361344537784E-7      0.0274674303717235
1.260504201680668E-6      0.027466445368683305
1.6806722689075569E-6     0.027465319919534652
2.1008403361344462E-6     0.02746405402427754
2.521008403361336E-6      0.02746264768291196
2.941176470588225E-6      0.02746110089543792
3.361344537815116E-6      0.02745904250105436
3.781512605042006E-6      0.027456717746926693
4.2016806722688975E-6     0.02745412663305489
4.621848739495788E-6      0.02745126915943898
5.0420168067226796E-6     0.027448145326078952
5.46218487394957E-6       0.027444755132974803
5.882352941176461E-6      0.02744109858012653
6.302521008403353E-6      0.02743714016318565
6.722689075630246E-6      0.027432925802934435
7.1428571428571385E-6     0.02742845549937286
7.563025210084031E-6      0.027423729252500945
7.983193277310924E-6      0.027418747062318696
8.403361344537817E-6      0.027413508928826092
8.823529411764708E-6      0.027408014852023144
9.2436974789916E-6        0.027402199235152788
9.66386554621849E-6       0.02739613108067717
1.0084033613445381E-5     0.02738981038859628
1.0504201680672271E-5     0.027383237158910126
1.0924369747899162E-5     0.02737641139161871
1.1344537815126054E-5     0.027369333086722028
1.1764705882352944E-5     0.027362002244220075
1.2184873949579835E-5     0.027354361542235656
1.2605042016806726E-5     0.02734647762618362
1.3025210084033616E-5     0.027338350496063955
1.3445378151260506E-5     0.02732998015187667
1.3865546218487399E-5     0.02732136659362177
1.4285714285714289E-5     0.027312509821299246
1.470588235294118E-5      0.027303409834909097
1.5126050420168068E-5     0.02729401913162975
1.5546218487394955E-5     0.027284388742294677
1.5966386554621844E-5     0.02727451866690385
1.638655462184873E-5      0.027264408905457303
1.6806722689075617E-5     0.02725405945795502
1.7226890756302507E-5     0.027243470324396994
1.7647058823529393E-5     0.027232641504783238
1.8067226890756286E-5     0.027221583818074616
1.8487394957983176E-5     0.027210291830821593
1.8907563025210073E-5     0.027198765543024153
1.9327731092436962E-5     0.02718700495468231
1.974789915966386E-5      0.027175010065796066
2.0168067226890752E-5     0.02716278087636541
2.0588235294117642E-5     0.027150317386390347
2.1008403361344535E-5     0.027137649607766334
2.1428571428571425E-5     0.027124765403277778
2.1848739495798315E-5     0.027111664772924673
2.2268907563025204E-5     0.02709834771670703
2.2689075630252094E-5     0.02708481423462485
2.3109243697478987E-5     0.027071064326678117
2.3529411764705877E-5     0.027057097992866846
2.394957983193277E-5      0.027042926426600757
2.436974789915966E-5      0.027028556047474034
2.478991596638655E-5      0.02701398685548667
2.521008403361344E-5      0.026999218850638683
2.5630252100840332E-5     0.02698425203293006
2.6050420168067226E-5     0.0269690864023608
2.6470588235294115E-5     0.026953721958930907
2.6890756302521005E-5     0.02693819587536252
2.7310924369747895E-5     0.026922489324718267
2.7731092436974788E-5     0.026906602306998133
2.8151260504201674E-5     0.02689053482220214
2.8571428571428567E-5     0.02687428687033027
2.899159663865546E-5      0.02685785845138253
2.941176470588235E-5      0.026841249565358917
2.983193277310924E-5      0.02682444021036206
3.025210084033613E-5      0.026807498273213534
3.067226890756302E-5      0.02679042375391333
3.109243697478991E-5      0.026773216652461462
3.1512605042016806E-5     0.026755876968857926
3.1932773109243696E-5     0.026738404703102715
3.2352941176470585E-5     0.026720799855195834
3.2773109243697475E-5     0.02670289422101337
3.3193277310924365E-5     0.026684894813718996
3.3613445378151255E-5     0.0266668016333127
3.4033613445378144E-5     0.026648614679794503
3.445378151260504E-5      0.026630333953164387
3.487394957983193E-5      0.02661195945342236
3.529411764705882E-5      0.026593491180568425
3.571428571428571E-5      0.026574771281589884
3.61344537815126E-5       0.02655598231533894
3.6554621848739496E-5     0.026537124281815577
3.697478991596638E-5      0.026518197181019807
3.7394957983193276E-5     0.02649920101295163
3.781512605042017E-5      0.02648013577761104
3.8235294117647055E-5     0.02646100147499804
3.8655462184873945E-5     0.026441661375098336
3.907563025210084E-5      0.02642229901778722
3.949579831932773E-5      0.026402914403064675
3.991596638655462E-5      0.02638350753093072
4.033613445378151E-5      0.02636407840138535
4.075630252100841E-5      0.026344627014428558
4.11764705882353E-5       0.026325153370060344
4.1596638655462194E-5     0.026305467699648262
4.2016806722689084E-5     0.026285810585284987
4.2436974789915967E-5     0.026266182026970494
4.285714285714286E-5      0.026246582024704812
4.327731092436975E-5      0.02622701057848793
4.369747899159664E-5      0.026207467688319847
4.411764705882353E-5      0.02618795335420056
4.453781512605042E-5      0.026168266255687696
4.495798319327731E-5      0.026148663148434476
4.53781512605042E-5       0.026129144032440883
4.5798319327731085E-5     0.026109708907706933
4.621848739495798E-5      0.026090357774232627
4.6638655462184864E-5     0.026071090632017953
4.7058823529411754E-5     0.02605190748106292
4.747899159663865E-5      0.026032587656948658
4.789915966386554E-5      0.026013422576111382
4.831932773109242E-5      0.025994412238551076
4.873949579831932E-5      0.025975556644267754
4.915966386554621E-5      0.025956855793261416
4.95798319327731E-5       0.025938309685532054
4.999999999999999E-5      0.025919918321079673
5.042016806722688E-5      0.0259014077110021
5.0840336134453775E-5     0.02588313787061898
5.1260504201680665E-5     0.02586510879993031
5.1680672268907555E-5     0.025847320498936104
5.210084033613445E-5      0.025829772967636357
5.252100840336134E-5      0.025812466206031066
5.294117647058823E-5      0.025795400214120225
5.336134453781512E-5      0.02577822652993919
5.378151260504201E-5      0.025761397596801038
5.420168067226891E-5      0.025744913414705743
5.462184873949579E-5      0.02572877398365333
5.5042016806722686E-5     0.02571297930364379
5.546218487394958E-5      0.025697529374677126
5.5882352941176466E-5     0.025682424196753335
5.6302521008403355E-5     0.025667213623109426
5.6722689075630245E-5     0.02565247381174933
5.714285714285714E-5      0.025638204762673027
5.7563025210084025E-5     0.025624406475880535
5.798319327731092E-5      0.025611078951371855
5.840336134453782E-5      0.02559822218914697
5.88235294117647E-5       0.02558583618920589
5.92436974789916E-5       0.025573332013687285
5.966386554621848E-5      0.025561451957822293
6.008403361344538E-5      0.025550196021610887
6.050420168067226E-5      0.0255395642050531
6.0924369747899156E-5     0.02552955650814892
6.134453781512605E-5      0.025520172930898342
6.176470588235294E-5      0.02551141347330137
6.218487394957983E-5      0.025502494919718628
6.260504201680672E-5      0.02549438944524758
6.302521008403361E-5      0.025487097049888215
6.34453781512605E-5       0.025480617733640548
6.386554621848739E-5      0.02547495149650457
6.428571428571429E-5      0.02547009833848028
6.470588235294117E-5      0.025466058259567676
6.512605042016805E-5      0.025461761168004544
6.554621848739495E-5      0.025458516459984478
6.596638655462185E-5      0.025456324135507462
6.638655462184873E-5      0.02545518419457352
6.680672268907563E-5      0.025455096637182633
6.722689075630252E-5      0.025456061463334803
6.76470588235294E-5       0.02545807867303004
6.806722689075629E-5      0.0254596355595492
6.848739495798319E-5      0.025462561332866784
6.890756302521008E-5      0.025466855992982772
6.932773109243696E-5      0.02547251953989718
6.974789915966386E-5      0.02547955197361001
7.016806722689076E-5      0.02548795329412125
7.058823529411764E-5      0.025497723501430907
7.100840336134452E-5      0.025506636460513966
7.142857142857142E-5      0.025517356243827373
7.184873949579832E-5      0.025529882851371106
7.22689075630252E-5       0.025544216283145186
7.26890756302521E-5       0.025560356539149606
7.310924369747899E-5      0.025578303619384367
7.352941176470588E-5      0.025598057523849464
7.394957983193276E-5      0.02561633671135337
7.436974789915967E-5      0.025637017544284144
7.478991596638655E-5      0.025660100022641772
7.521008403361343E-5      0.02568558414642628
7.563025210084034E-5      0.02571346991563766
7.605042016806723E-5      0.0257437573302759
7.647058823529412E-5      0.025776446390341008
7.689075630252102E-5      0.02580680433839031
7.73109243697479E-5       0.025840351799952338
7.773109243697479E-5      0.02587708877502706
7.815126050420167E-5      0.025917015263614503
7.857142857142857E-5      0.025960131265714656
7.899159663865546E-5      0.026006436781327517
7.941176470588235E-5      0.026055931810453094
7.983193277310923E-5      0.026102318504058118
8.025210084033613E-5      0.02615243729210799
8.067226890756302E-5      0.02620628817460271
8.10924369747899E-5       0.026263871151542276
8.151260504201682E-5      0.026325186222926695
8.19327731092437E-5       0.02639023338875596
8.23529411764706E-5       0.026459012649030077
8.277310924369749E-5      0.02652812995696834
8.319327731092437E-5      0.026600126209827477
8.361344537815127E-5      0.026675001407607476
8.403361344537815E-5      0.026752755550308354
8.445378151260505E-5      0.026833388637930108
8.487394957983195E-5      0.026916900670472723
8.529411764705883E-5      0.027003291647936214
8.571428571428573E-5      0.027094414622512837
8.613445378151261E-5      0.027186054144978128
8.655462184873949E-5      0.027278210215332055
8.697478991596639E-5      0.027370882833574653
8.739495798319329E-5      0.0274640719997059
8.781512605042018E-5      0.02755777771372581
8.823529411764706E-5      0.02765199997563437
8.865546218487395E-5      0.02775019341803227
8.907563025210084E-5      0.02784199946834845
8.949579831932774E-5      0.027927418126582882
8.991596638655461E-5      0.028006449392735593
9.033613445378152E-5      0.028079093266806576
9.075630252100842E-5      0.02814534974879582
9.11764705882353E-5       0.028205218838703333
9.15966386554622E-5       0.02826541730994528
9.201680672268908E-5      0.028304344314323326
9.243697478991596E-5      0.028321999851837466
9.285714285714286E-5      0.028318383922487707
9.327731092436976E-5      0.028293496526274046
9.369747899159665E-5      0.02824733766319648
9.411764705882353E-5      0.02817990733325501
9.453781512605042E-5      0.028098221415376885
9.495798319327731E-5      0.027979153136997576
9.53781512605042E-5       0.027822702498117063
9.57983193277311E-5       0.02762886949873537
9.621848739495799E-5      0.027397654138852486
9.663865546218487E-5      0.027129056418468404
9.705882352941177E-5      0.026823076337583133
9.747899159663867E-5      0.026499810419692515
9.789915966386555E-5      0.02614438096431979
9.831932773109245E-5      0.02575678797146494
9.873949579831933E-5      0.025337031441127984
9.915966386554623E-5      0.024885111373308913
9.957983193277312E-5      0.024401027768007722
1.0E-4                    0.023884780625224426
1.004264392324094E-4      0.023344705585455504
1.0085287846481877E-4     0.022806846978387266
1.0127931769722815E-4     0.022271204804019708
1.0170575692963754E-4     0.021737779062352827
1.0213219616204692E-4     0.021206569753386636
1.025586353944563E-4      0.020677576877121115
1.0298507462686569E-4     0.02015080043355628
1.0341151385927508E-4     0.0196150061839026
1.0383795309168445E-4     0.019088729346743917
1.0426439232409383E-4     0.01857196992208023
1.0469083155650321E-4     0.018064727909911545
1.0511727078891259E-4     0.01756700331023786
1.0554371002132197E-4     0.017078796123059174
1.0597014925373135E-4     0.016600106348375488
1.0639658848614073E-4     0.016115639285220095
1.0682302771855012E-4     0.015634507539275932
1.0724946695095948E-4     0.015156711110542986
1.0767590618336888E-4     0.014682249999021265
1.0810234541577824E-4     0.014211124204710775
1.0852878464818763E-4     0.0137433337276115
1.0895522388059701E-4     0.013278878567723454
1.093816631130064E-4      0.012804966865657087
1.0980810234541578E-4     0.012328622858462892
1.1023454157782515E-4     0.011849846546140868
1.1066098081023454E-4     0.011368637928691016
1.1108742004264393E-4     0.010884997006113341
1.115138592750533E-4      0.010398923778407836
1.1194029850746269E-4     0.009910418245574502
1.1236673773987208E-4     0.00941708163838919
1.1279317697228145E-4     0.008920152994923696
1.1321961620469083E-4     0.008419632315178022
1.1364605543710021E-4     0.00791551959915217
1.1407249466950959E-4     0.007407814846846142
1.1449893390191897E-4     0.006896518058259931
1.1492537313432836E-4     0.006381629233393542
1.1535181236673775E-4     0.005862086137196987
1.1577825159914712E-4     0.005338893544740663
1.162046908315565E-4      0.004812051456024568
1.1663113006396588E-4     0.0042815598710487035
1.1705756929637526E-4     0.0037474187898130715
1.1748400852878464E-4     0.0032096282123176677
1.1791044776119402E-4     0.0026681881385624954
1.1833688699360342E-4     0.00212320196969151
1.187633262260128E-4      0.0015748625497058679
1.1918976545842218E-4     0.0010231698786055687
1.1961620469083157E-4     4.681239563906122E-4
1.2004264392324095E-4     -9.027521693900036E-5
1.2046908315565034E-4     -6.520276413832706E-4
1.2089552238805972E-4     -0.0012171333169421973
1.2132196162046911E-4     -0.0017853411745614954
1.2174840085287848E-4     -0.0023566786549582192
1.2217484008528786E-4     -0.0029311457581323672
1.2260127931769724E-4     -0.003508742484083942
1.2302771855010662E-4     -0.0040894688328129425
1.23454157782516E-4       -0.004673324804319367
1.2388059701492538E-4     -0.005260310398603218
1.2430703624733477E-4     -0.005849913731681346
1.2473347547974415E-4     -0.006442325292838494
1.2515991471215353E-4     -0.007037545082074661
1.255863539445629E-4      -0.00763557309938985
1.260127931769723E-4      -0.008236409344784059
1.2643923240938167E-4     -0.008840053818257287
1.2686567164179105E-4     -0.009446506519809536
1.2729211087420043E-4     -0.010055819359376541
1.2771855010660981E-4     -0.010667632456616491
1.281449893390192E-4      -0.011281945811529382
1.2857142857142858E-4     -0.011898759424115214
1.2899786780383796E-4     -0.012518073294373992
1.2942430703624734E-4     -0.013139887422305709
1.2985074626865672E-4     -0.01376420180791037
1.302771855010661E-4      -0.014390942236302823
1.3070362473347548E-4     -0.015020020628939212
1.3113006396588486E-4     -0.015651436985819542
1.3155650319829424E-4     -0.016285191306943815
1.3198294243070362E-4     -0.01692128359231203
1.32409381663113E-4       -0.017559713841924188
1.3283582089552239E-4     -0.018200482055780284
1.3326226012793177E-4     -0.018843220821400542
1.3368869936034115E-4     -0.019488016660539127
1.3411513859275053E-4     -0.020134869573196035
1.345415778251599E-4      -0.02078377955937128
1.349680170575693E-4      -0.021434746619064846
1.3539445628997867E-4     -0.02208777075227674
1.3582089552238805E-4     -0.02274285195900696
1.3624733475479743E-4     -0.023400138443924325
1.3667377398720682E-4     -0.02405919496882145
1.371002132196162E-4      -0.02472002153369832
1.3752665245202558E-4     -0.025382618138554948
1.3795309168443496E-4     -0.026046984783391333
1.3837953091684434E-4     -0.026713121468207465
1.3880597014925372E-4     -0.02738102819300335
1.392324093816631E-4      -0.02805083342091374
1.3965884861407248E-4     -0.028722238783869845
1.4008528784648186E-4     -0.02939524428187165
1.4051172707889124E-4     -0.03006984991491917
1.4093816631130063E-4     -0.030746055683012412
1.4136460554371E-4        -0.03142386158615135
1.417910447761194E-4      -0.032103267624336
1.422174840085288E-4      -0.03278423361532374
1.4264392324093815E-4     -0.03346656579169623
1.4307036247334753E-4     -0.03415026415345346
1.4349680170575694E-4     -0.03483532870059542
1.4392324093816635E-4     -0.03552175943312214
1.443496801705757E-4      -0.036209556351033595
1.447761194029851E-4      -0.036898719454329786
1.452025586353945E-4      -0.037589238191734604
1.4562899786780387E-4     -0.03828093297004796
1.4605543710021325E-4     -0.03897380378926986
1.4648187633262263E-4     -0.039667850649400295
1.4690831556503201E-4     -0.04036307355043929
1.473347547974414E-4      -0.04105947249238681
1.4776119402985075E-4     -0.041757047475242885
1.4818763326226013E-4     -0.04245568407280123
1.486140724946695E-4      -0.04315529138382118
1.490405117270789E-4      -0.04385586940830273
1.4946695095948827E-4     -0.04455741814624589
1.4989339019189766E-4     -0.04525993759765067
1.5031982942430704E-4     -0.04596342776251704
1.5074626865671642E-4     -0.046667888640845014
1.511727078891258E-4      -0.04737321854529761
1.5159914712153518E-4     -0.04807931986272909
1.5202558635394456E-4     -0.048786192593139446
1.5245202558635394E-4     -0.04949383673652871
1.5287846481876332E-4     -0.050202252292896876
1.533049040511727E-4      -0.050911439262243896
1.5373134328358208E-4     -0.05162139764456983
1.5415778251599147E-4     -0.05233203166091827
1.5458422174840087E-4     -0.05304324065766293
1.5501066098081023E-4     -0.05375502463480377
1.5543710021321964E-4     -0.05446738359234081
1.5586353944562902E-4     -0.05518031753027407
1.5628997867803837E-4     -0.055893826448603495
1.5671641791044778E-4     -0.05660791034732913
1.5714285714285716E-4     -0.05732249567838179
1.5756929637526654E-4     -0.0580374718909389
1.5799573560767592E-4     -0.05875283898500045
1.584221748400853E-4      -0.05946859696056646
1.5884861407249468E-4     -0.060184745817636914
1.5927505330490407E-4     -0.0609012855562118
1.5970149253731345E-4     -0.061618216176291145
1.6012793176972283E-4     -0.06233531951524758
1.605543710021322E-4      -0.06305266621240095
1.609808102345416E-4      -0.06377025626775126
1.6140724946695097E-4     -0.0644880896812985
1.6183368869936035E-4     -0.06520616645304272
1.6226012793176973E-4     -0.06592448658298386
1.6268656716417911E-4     -0.06664305007112194
1.631130063965885E-4      -0.0673615145208057
1.6353944562899788E-4     -0.06808003026974621
1.6396588486140726E-4     -0.06879859731794344
1.6439232409381664E-4     -0.0695172156653974
1.6481876332622602E-4     -0.07023588531210812
1.652452025586354E-4      -0.07095460625807555
1.6567164179104478E-4     -0.07167337850329973
1.6609808102345416E-4     -0.07239205736051316
1.6652452025586354E-4     -0.07311057929719414
1.6695095948827292E-4     -0.07382894431334268
1.673773987206823E-4      -0.07454715240895876
1.6780383795309169E-4     -0.07526520358404243
1.6823027718550107E-4     -0.07598309783859364
1.6865671641791045E-4     -0.0767008351726124
1.6908315565031983E-4     -0.07741851384792837
1.695095948827292E-4      -0.0781358476714415
1.699360341151386E-4      -0.07885283664315178
1.7036247334754797E-4     -0.07956948076305921
1.7078891257995735E-4     -0.08028578003116385
1.7121535181236673E-4     -0.08100173444746561
1.7164179104477612E-4     -0.08171734401196457
1.720682302771855E-4      -0.08243262939057461
1.7249466950959488E-4     -0.08314745666772033
1.7292110874200426E-4     -0.0838618258434017
1.7334754797441364E-4     -0.08457573691761873
1.7377398720682302E-4     -0.08528918989037147
1.742004264392324E-4      -0.08600218476165984
1.7462686567164178E-4     -0.0867147215314839
1.7505330490405116E-4     -0.08742654041032917
1.7547974413646055E-4     -0.08813774950843169
1.7590618336886993E-4     -0.08884834882579142
1.763326226012793E-4      -0.08955833836240837
1.767590618336887E-4      -0.0902677181182826
1.7718550106609807E-4     -0.090976488093414
1.7761194029850745E-4     -0.09168464828780268
1.7803837953091683E-4     -0.09239213529456178
1.784648187633262E-4      -0.09309881189573756
1.788912579957356E-4      -0.09380467809133002
1.7931769722814497E-4     -0.09450973388133917
1.7974413646055436E-4     -0.09521397926576504
1.8017057569296374E-4     -0.09591741424460756
1.8059701492537312E-4     -0.09662003881786678
1.810234541577825E-4      -0.09732193309807684
1.8144989339019188E-4     -0.09802289027947465
1.8187633262260126E-4     -0.09872291036206018
1.8230277185501064E-4     -0.09942199334583347
1.8272921108742002E-4     -0.10012013923079455
1.831556503198294E-4      -0.10081734801694331
1.8358208955223879E-4     -0.10151361970427986
1.8400852878464817E-4     -0.10220890861816927
1.8443496801705755E-4     -0.10290312145431588
1.8486140724946693E-4     -0.1035962582127197
1.852878464818763E-4      -0.10428831889338078
1.857142857142857E-4      -0.1049793034962991
1.8614072494669507E-4     -0.10566921202147458
1.8656716417910445E-4     -0.10635804446890734
1.8699360341151383E-4     -0.10704575319523942
1.8742004264392321E-4     -0.10773225074377726
1.878464818763326E-4      -0.10841753711452087
1.8827292110874198E-4     -0.10910161230747026
1.8869936034115136E-4     -0.10978447632262545
1.8912579957356074E-4     -0.11046612915998637
1.8955223880597012E-4     -0.11114657081955309
1.899786780383795E-4      -0.1118257566842848
1.904051172707889E-4      -0.11250361523559699
1.9083155650319826E-4     -0.11318014647348966
1.9125799573560764E-4     -0.11385535039796281
1.9168443496801702E-4     -0.1145292270090165
1.9211087420042643E-4     -0.11520177630665063
1.9253731343283581E-4     -0.11587299829086525
1.929637526652452E-4      -0.1165423599217358
1.9339019189765455E-4     -0.1172103830677485
1.9381663113006393E-4     -0.1178770677289034
1.942430703624733E-4      -0.11854241390520046
1.9466950959488272E-4     -0.11920642159663973
1.9509594882729207E-4     -0.11986909080322114
1.9552238805970145E-4     -0.12053042152494474
1.9594882729211084E-4     -0.12118967728026625
1.9637526652452024E-4     -0.12184734639231579
1.968017057569296E-4      -0.12250342886109337
1.97228144989339E-4       -0.123157924686599
1.9765458422174841E-4     -0.1238108338688327
1.980810234541578E-4      -0.1244621564077944
1.9850746268656718E-4     -0.12511189230348416
1.9893390191897656E-4     -0.1257604220971126
1.9936034115138594E-4     -0.12640714291750396
1.9978678038379532E-4     -0.12705205476465825
2.002132196162047E-4      -0.12769515763857545
2.0063965884861408E-4     -0.1283364515392556
2.0106609808102346E-4     -0.12897593646669864
2.0149253731343284E-4     -0.1296136124209046
2.0191897654584222E-4     -0.13024989715589144
2.023454157782516E-4      -0.13088434479177619
2.0277185501066093E-4     -0.13151695532855884
2.0319829424307034E-4     -0.13214772876623931
2.0362473347547972E-4     -0.13277666510481778
2.0405117270788908E-4     -0.13340376434429407
2.0447761194029846E-4     -0.13402902648466827
2.0490405117270784E-4     -0.13465245487698999
2.0533049040511725E-4     -0.13527395193931996
2.057569296375266E-4      -0.13589351767165822
2.06183368869936E-4       -0.13651115207400477
2.0660980810234542E-4     -0.13712685514635958
2.070362473347548E-4      -0.13774062688872266
2.0746268656716418E-4     -0.13835246730109402
2.0788912579957356E-4     -0.13896232075651851
2.0831556503198294E-4     -0.13957015405377166
2.087420042643923E-4      -0.1401759671928534
2.091684434968017E-4      -0.14077976017376387
2.0959488272921106E-4     -0.14138153299650305
2.1002132196162044E-4     -0.14198128566107082
2.1044776119402982E-4     -0.1425790181674673
2.108742004264392E-4      -0.1431746565935222
2.1130063965884858E-4     -0.14376816126868305
2.1172707889125793E-4     -0.14435953219294995
2.1215351812366734E-4     -0.14494876936632278
2.1257995735607672E-4     -0.14553587278880173
2.130063965884861E-4      -0.1461208424603866
2.1343283582089549E-4     -0.14670367838107748
2.1385927505330487E-4     -0.1472844372212627
2.1428571428571422E-4     -0.14786296176698516
2.147121535181236E-4      -0.1484392520182448
2.1513859275053298E-4     -0.1490133079750416
2.155650319829424E-4      -0.1495851296373757
2.1599147121535174E-4     -0.1501547170052469
2.1641791044776113E-4     -0.15072207007865537
2.168443496801705E-4      -0.15128720656339345
2.172707889125799E-4      -0.15185004015157338
2.1769722814498927E-4     -0.15241057084319506
2.1812366737739865E-4     -0.1529687986382586
2.1855010660980803E-4     -0.153524723536764
2.1897654584221744E-4     -0.15407834553871114
2.1940298507462682E-4     -0.15462966464410013
2.1982942430703623E-4     -0.15517859497136674
2.2025586353944558E-4     -0.1557251437635233
2.2068230277185494E-4     -0.1562693110205698
2.2110874200426437E-4     -0.1568110967425063
2.2153518123667375E-4     -0.15735050092933278
2.2196162046908313E-4     -0.15788752358104913
2.2238805970149251E-4     -0.1584221646976555
2.228144989339019E-4      -0.158954350206747
2.2324093816631128E-4     -0.1594840938975357
2.2366737739872063E-4     -0.1600113957700216
2.2409381663113E-4        -0.1605362558242046
2.245202558635394E-4      -0.1610586740600849
2.2494669509594877E-4     -0.1615786504776623
2.2537313432835815E-4     -0.16209618507693688
2.2579957356076756E-4     -0.16261069252821211
2.2622601279317692E-4     -0.16312280170609983
2.2665245202558627E-4     -0.16363251261060008
2.270788912579957E-4      -0.16413982524171283
2.275053304904051E-4      -0.16464473959943815
2.2793176972281447E-4     -0.16514725568377597
2.2835820895522385E-4     -0.16564737349472627
2.2878464818763323E-4     -0.16614435366821245
2.292110874200426E-4      -0.1666387275593375
2.29637526652452E-4       -0.16713049516810127
2.3006396588486137E-4     -0.16761965649450392
2.3049040511727075E-4     -0.1681062115385454
2.3091684434968014E-4     -0.1685901603002256
2.3134328358208952E-4     -0.16907150277954472
2.3176972281449892E-4     -0.16955065325322638
2.3219616204690828E-4     -0.17002704276087555
2.3262260127931766E-4     -0.17050067130249222
2.3304904051172707E-4     -0.1709715388780764
2.3347547974413645E-4     -0.17143964548762813
2.3390191897654586E-4     -0.17190499113114735
2.3432835820895524E-4     -0.1723675758086341
2.3475479744136462E-4     -0.17282772334259092
2.3518123667377397E-4     -0.1732851413413197
2.3560767590618333E-4     -0.17373982980482047
2.3603411513859274E-4     -0.17419178873309324
2.364605543710021E-4      -0.17464101812613803
2.3688699360341147E-4     -0.17508751798395472
2.3731343283582085E-4     -0.17553128830654344
2.3773987206823026E-4     -0.17597236018973209
2.381663113006396E-4      -0.1764106266975152
2.38592750533049E-4       -0.17684608782989286
2.390191897654584E-4      -0.17727874358686502
2.3944562899786778E-4     -0.1777085939684317
2.3987206823027716E-4     -0.17813563897459284
2.4029850746268655E-4     -0.1785598786053485
2.4072494669509595E-4     -0.1789814182988909
2.4115138592750533E-4     -0.1794001343716621
2.415778251599147E-4      -0.17981602682366213
2.420042643923241E-4      -0.18022909565489093
2.4243070362473348E-4     -0.1806393408653486
2.4285714285714283E-4     -0.18104676245503504
2.432835820895522E-4      -0.18145136042395035
2.4371002132196162E-4     -0.18185286128204142
2.44136460554371E-4       -0.18225155246535707
2.445628997867804E-4      -0.1826474339738972
2.4498933901918976E-4     -0.18304050580766193
2.4541577825159915E-4     -0.18343076796665125
2.458422174840085E-4      -0.18381822045086504
2.462686567164179E-4      -0.1842028632603034
2.466950959488273E-4      -0.18458436758971739
2.4712153518123667E-4     -0.18496296007549454
2.47547974413646E-4       -0.18533864071763484
2.4797441364605543E-4     -0.18571140951613835
2.4840085287846476E-4     -0.18608126647100504
2.4882729211087414E-4     -0.18644821158223485
2.492537313432835E-4      -0.18681224484982786
2.496801705756929E-4      -0.1871734515809539
2.501066098081023E-4      -0.1875316983746631
2.5053304904051166E-4     -0.18788698523095546
2.5095948827292104E-4     -0.188239312149831
2.513859275053304E-4      -0.18858867913128974
2.518123667377398E-4      -0.18893508617533164
2.522388059701492E-4      -0.18927853328195673
2.5266524520255857E-4     -0.18961892953595852
2.5309168443496795E-4     -0.1899563946380302
2.5351812366737733E-4     -0.19029092858817184
2.5394456289978677E-4     -0.1906225313863834
2.543710021321961E-4      -0.190951203032665
2.5479744136460553E-4     -0.1912769435270164
2.552238805970149E-4      -0.1915997528694378
2.556503198294243E-4      -0.19191906593510705
2.560767590618336E-4      -0.19223547622592654
2.56503198294243E-4       -0.19254898374189627
2.569296375266524E-4      -0.1928595884830163
2.5735607675906176E-4     -0.19316729044928663
2.5778251599147114E-4     -0.19347208964070714
2.582089552238805E-4      -0.19377398605727797
2.586353944562899E-4      -0.19407256683150387
2.590618336886993E-4      -0.19436809148628356
2.5948827292110867E-4     -0.19466056002161714
2.599147121535181E-4      -0.19494997243750453
2.6034115138592743E-4     -0.1952363287339458
2.6076759061833686E-4     -0.19551962891094088
2.6119402985074624E-4     -0.19579987296848983
2.616204690831556E-4      -0.19607758098811032
2.62046908315565E-4       -0.1963521560411872
2.624733475479744E-4      -0.1966235981277204
2.6289978678038377E-4     -0.19689190724770997
2.6332622601279315E-4     -0.1971570834011559
2.6375266524520253E-4     -0.19741912658805813
2.641791044776119E-4      -0.19767803680841675
2.646055437100213E-4      -0.1979341599881647
2.650319829424307E-4      -0.19818722340080072
2.6545842217484E-4        -0.19843722704632494
2.6588486140724944E-4     -0.19868417092473728
2.6631130063965876E-4     -0.19892805503603778
2.6673773987206814E-4     -0.19916887938022637
2.671641791044775E-4      -0.19940664395730315
2.675906183368869E-4      -0.19964134122101554
2.680170575692963E-4      -0.1998729715128309
2.6844349680170567E-4     -0.20010153483274914