% Model:              ModelMicPlate_Rh20um_hg5um_Refined_MaterialDefPolySilicon.mph
% Version:            COMSOL 6.3.0.420
% Date:               Aug 12 2025, 09:32
% Dimension:          1
% Nodes:              708
% Expressions:        1
% Description:        Line graph
% Arc length (m)          real(p)
0                         0.20616915662461294
4.0816326530612243E-7     0.20651473531923567
8.163265306122445E-7      0.20684669557618887
1.224489795918367E-6      0.20716503739547243
1.632653061224489E-6      0.20746976077708643
2.0408163265306117E-6     0.2077608657210309
2.448979591836734E-6      0.2080383522273057
2.857142857142856E-6      0.20830222029591097
3.265306122448978E-6      0.20888518153529867
3.6734693877551007E-6     0.20952390334843374
4.0816326530612225E-6     0.2102183857353161
4.489795918367345E-6      0.21096862869594585
4.897959183673468E-6      0.2117746322303229
5.30612244897959E-6       0.2126363963384473
5.714285714285712E-6      0.2135539210203191
6.1224489795918346E-6     0.21455436534273256
6.530612244897958E-6      0.21563871435999632
6.9387755102040806E-6     0.21680696807211025
7.3469387755102015E-6     0.21805912647907447
7.755102040816326E-6      0.2193951895808889
8.163265306122448E-6      0.22081515737755358
8.571428571428571E-6      0.22231902986906849
8.979591836734694E-6      0.22390413377997362
9.387755102040816E-6      0.22557841167117382
9.795918367346939E-6      0.22734186354266894
1.020408163265306E-5      0.22919448939445913
1.0612244897959184E-5     0.23113628922654433
1.1020408163265308E-5     0.2331672630389245
1.1428571428571429E-5     0.23528741083159965
1.1836734693877552E-5     0.23754655116137008
1.2244897959183674E-5     0.23991928930639006
1.2653061224489795E-5     0.24240562526665946
1.3061224489795918E-5     0.2450055590421784
1.346938775510204E-5      0.2477190906329469
1.3877551020408165E-5     0.2505462200389649
1.4285714285714285E-5     0.2534869472602323
1.4693877551020408E-5     0.25662463833843435
1.510204081632653E-5      0.2599083059312211
1.5510204081632655E-5     0.2633379500385924
1.5918367346938776E-5     0.26691357066054844
1.63265306122449E-5       0.27063516779708907
1.6734693877551024E-5     0.2745027414482143
1.7142857142857145E-5     0.2785162916139242
1.755102040816327E-5      0.28280460957582687
1.795918367346939E-5      0.28718726734108635
1.8367346938775515E-5     0.2916642649097024
1.8775510204081636E-5     0.2962356022816751
1.9183673469387756E-5     0.30090127945700457
1.959183673469388E-5      0.3056612964356907
2.0E-5                    0.31051565321773344
2.042553191489362E-5      0.31555773297654727
2.0851063829787234E-5     0.3205485752314254
2.1276595744680852E-5     0.3254881799823678
2.1702127659574467E-5     0.3303765472293746
2.212765957446808E-5      0.33521367697244575
2.2553191489361703E-5     0.33999956921158114
2.2978723404255317E-5     0.344734223946781
2.3404255319148935E-5     0.34927391073061403
2.382978723404255E-5      0.3536884452429433
2.4255319148936165E-5     0.35797782748376866
2.4680851063829783E-5     0.3621420574530902
2.51063829787234E-5       0.36618113515090794
2.5531914893617015E-5     0.37009506057722175
2.5957446808510633E-5     0.37388383373203177
2.638297872340425E-5      0.3775164985828999
2.6808510638297866E-5     0.3810309477813098
2.7234042553191484E-5     0.3844271813272614
2.7659574468085102E-5     0.38770519922075475
2.808510638297872E-5      0.39086500146179004
2.8510638297872334E-5     0.3939065880503669
2.8936170212765952E-5     0.3968299589864856
2.936170212765957E-5      0.39963890665216056
2.9787234042553185E-5     0.40234931708707145
3.02127659574468E-5       0.4049611902912181
3.063829787234042E-5      0.4074745262646006
3.106382978723404E-5      0.4098893250072192
3.148936170212765E-5      0.41220558651907335
3.191489361702127E-5      0.41442331080016354
3.2340425531914886E-5     0.4165485331699508
3.2765957446808504E-5     0.41858946614490183
3.319148936170212E-5      0.42054610972501666
3.361702127659574E-5      0.42241846391029525
3.404255319148936E-5      0.42420652870073783
3.4468085106382976E-5     0.425910304096344
3.4893617021276594E-5     0.42752979009711406
3.531914893617021E-5      0.4290726276791673
3.574468085106383E-5      0.4305422498773171
3.617021276595744E-5      0.4319386566915632
3.659574468085106E-5      0.433261848121906
3.702127659574468E-5      0.4345118241683452
3.744680851063829E-5      0.4356885848308809
3.7872340425531907E-5     0.4367921301095131
3.8297872340425525E-5     0.4378305241823298
3.8723404255319136E-5     0.4388049365000534
3.914893617021275E-5      0.4397153670626839
3.957446808510637E-5      0.44056181587022125
3.999999999999998E-5      0.44134428292266564
4.04255319148936E-5       0.44206276822001667
4.085106382978722E-5      0.4427172717622747
4.127659574468084E-5      0.44331287517391177
4.1702127659574455E-5     0.4438524764096156
4.2127659574468066E-5     0.4443360754693862
4.255319148936169E-5      0.44476367235322356
4.29787234042553E-5       0.4451352670611278
4.340425531914893E-5      0.4454508595930987
4.382978723404254E-5      0.44571044994913644
4.4255319148936156E-5     0.445917000386799
4.4680851063829774E-5     0.4460736427544699
4.5106382978723385E-5     0.44618037705214925
4.5531914893616997E-5     0.44623720327983696
4.5957446808510615E-5     0.44624412143753334
4.638297872340423E-5      0.4462011315252379
4.680851063829785E-5      0.446108233542951
4.7234042553191475E-5     0.4459695316512368
4.765957446808508E-5      0.4457860911942019
4.8085106382978704E-5     0.44555791217184604
4.851063829787232E-5      0.4452849945841696
4.893617021276594E-5      0.4449673384311724
4.936170212765956E-5      0.4446049437128543
4.9787234042553176E-5     0.4441978104292155
5.02127659574468E-5       0.4437491540835813
5.0638297872340406E-5     0.44326056880026854
5.1063829787234024E-5     0.44273205457927717
5.148936170212764E-5      0.4421636114206072
5.191489361702126E-5      0.44155523932425894
5.234042553191487E-5      0.44090693829023186
5.276595744680849E-5      0.44021870831852633
5.319148936170211E-5      0.4394921316697006
5.3617021276595725E-5     0.43872956525201023
5.404255319148934E-5      0.4379310090654554
5.446808510638296E-5      0.43709646311003614
5.489361702127658E-5      0.4362259273857525
5.53191489361702E-5       0.4353194018926042
5.5744680851063815E-5     0.43437688663059154
5.617021276595743E-5      0.43340048705910605
5.6595744680851044E-5     0.43239138933280774
5.7021276595744655E-5     0.4313495934516966
5.744680851063827E-5      0.43027509941577247
5.7872340425531884E-5     0.42916790722503567
5.82978723404255E-5       0.4280280168794858
5.8723404255319114E-5     0.42685542837912316
5.914893617021274E-5      0.42565247395812167
5.9574468085106356E-5     0.4244199638831135
5.999999999999997E-5      0.42315789815409866
6.042553191489359E-5      0.421866276771077
6.085106382978722E-5      0.42054509973404886
6.127659574468083E-5      0.4191943670430139
6.170212765957445E-5      0.4178140786979723
6.212765957446806E-5      0.4164054680724274
6.255319148936169E-5      0.4149701375393061
6.297872340425529E-5      0.4135080870986083
6.340425531914891E-5      0.41201931675033415
6.382978723404252E-5      0.4105038264944837
6.425531914893613E-5      0.40896161633105665
6.468085106382975E-5      0.4073926862600533
6.510638297872337E-5      0.40579797705145726
6.553191489361698E-5      0.4041788922170611
6.59574468085106E-5       0.40253543175686496
6.638297872340422E-5      0.40086759567086866
6.680851063829784E-5      0.3991753839590726
6.723404255319147E-5      0.39745879662147626
6.765957446808508E-5      0.39571783365808
6.80851063829787E-5       0.3939540635424742
6.851063829787231E-5      0.3921680730297437
6.893617021276593E-5      0.3903598621198886
6.936170212765955E-5      0.38852943081290886
6.978723404255316E-5      0.3866767791088045
7.021276595744679E-5      0.3848019070075754
7.06382978723404E-5       0.3829048145092217
7.106382978723402E-5      0.3809867268190527
7.148936170212763E-5      0.37904853946269357
7.191489361702124E-5      0.37709025244014405
7.234042553191486E-5      0.3751118657514044
7.276595744680848E-5      0.37311337939647465
7.31914893617021E-5       0.37109479337535445
7.361702127659572E-5      0.3690561076880442
7.404255319148934E-5      0.36699793796758223
7.446808510638294E-5      0.3649214851540529
7.489361702127655E-5      0.3628267492474563
7.531914893617019E-5      0.3607137302477923
7.574468085106379E-5      0.35858242815506103
7.617021276595741E-5      0.35643284296926225
7.659574468085102E-5      0.3542649746903963
7.702127659574463E-5      0.35207980800059485
7.744680851063826E-5      0.34987796128782317
7.787234042553187E-5      0.3476594345520812
7.82978723404255E-5       0.34542422779336895
7.87234042553191E-5       0.34317234101168653
7.914893617021272E-5      0.34090377420703366
7.957446808510634E-5      0.33861852737941067
7.999999999999997E-5      0.33631769849301446
8.042553191489356E-5      0.3340017914675137
8.085106382978717E-5      0.3316708063029082
8.12765957446808E-5       0.32932474299919806
8.170212765957441E-5      0.3269636015563835
8.212765957446802E-5      0.3245873819744641
8.255319148936163E-5      0.32219608425344015
8.297872340425526E-5      0.31979026682309014
8.340425531914888E-5      0.317370858248968
8.38297872340425E-5       0.3149378585310738
8.425531914893612E-5      0.31249126766940744
8.468085106382974E-5      0.31003108566396914
8.510638297872335E-5      0.30755731251475865
8.553191489361698E-5      0.30506994822177613
8.59574468085106E-5       0.30256948385899046
8.638297872340422E-5      0.30005670038080423
8.680851063829783E-5      0.29753159778721744
8.723404255319144E-5      0.29499417607823003
8.765957446808508E-5      0.2924444352538421
8.808510638297869E-5      0.2898823753140536
8.85106382978723E-5       0.28730799625886455
8.893617021276592E-5      0.28472215120044436
8.936170212765952E-5      0.28212520414005404
8.978723404255313E-5      0.27951715507769365
9.021276595744674E-5      0.2768980040133634
9.063829787234035E-5      0.2742677509470631
9.106382978723398E-5      0.27162639587879267
9.148936170212759E-5      0.2689739388085523
9.191489361702122E-5      0.2663110157710504
9.234042553191483E-5      0.26363821347247945
9.276595744680844E-5      0.26095553191283954
9.319148936170208E-5      0.25826297109213064
9.361702127659569E-5      0.2555605310103528
9.40425531914893E-5       0.25284821166750593
9.446808510638292E-5      0.25012601306359006
9.489361702127655E-5      0.24739427214080306
9.531914893617015E-5      0.24465371639285619
9.574468085106377E-5      0.24190434581974923
9.617021276595738E-5      0.23914616042148243
9.6595744680851E-5        0.2363791601980557
9.702127659574462E-5      0.2336033451494689
9.744680851063823E-5      0.23081871527572226
9.787234042553185E-5      0.2280258693612502
9.829787234042548E-5      0.22522518046427425
9.872340425531908E-5      0.22241664858479426
9.914893617021271E-5      0.21960027372281032
9.957446808510633E-5      0.21677605587832255
9.999999999999995E-5      0.2139439950513307
1.0042553191489358E-4     0.2111040912418349
1.008510638297872E-4      0.20825698528904218
1.012765957446808E-4      0.20540302626142598
1.0170212765957441E-4     0.20254221415898627
1.0212765957446803E-4     0.19967454898172307
1.0255319148936166E-4     0.19680003072963648
1.0297872340425527E-4     0.19391865940272626
1.0340425531914888E-4     0.19103043500099262
1.038297872340425E-4      0.18813567927803623
1.0425531914893612E-4     0.185234997138852
1.0468085106382971E-4     0.18232838858343986
1.0510638297872335E-4     0.1794158536117999
1.0553191489361695E-4     0.17649739222393215
1.0595744680851058E-4     0.17357300441983645
1.0638297872340419E-4     0.17064269019951295
1.068085106382978E-4      0.16770677225193134
1.0723404255319141E-4     0.1647657368740414
1.0765957446808503E-4     0.16181958406584304
1.0808510638297865E-4     0.15886831382733635
1.0851063829787227E-4     0.15591192615852137
1.0893617021276588E-4     0.15295042105939793
1.093617021276595E-4      0.1499837985299662
1.0978723404255313E-4     0.14701260530311422
1.1021276595744674E-4     0.14403708629507178
1.1063829787234035E-4     0.1410572415058389
1.1106382978723399E-4     0.13807307093541552
1.114893617021276E-4      0.1350845745838018
1.1191489361702123E-4     0.13209175245099755
1.1234042553191484E-4     0.12909460453700292
1.1276595744680846E-4     0.1260935195760675
1.1319148936170207E-4     0.12308890900956021
1.1361702127659569E-4     0.12008077283748107
1.140425531914893E-4      0.11706911105983006
1.1446808510638292E-4     0.11405392367660724
1.1489361702127652E-4     0.11103521068781252
1.1531914893617014E-4     0.10801297209344596
1.1574468085106377E-4     0.10498742977180132
1.1617021276595738E-4     0.1019590628284555
1.1659574468085099E-4     0.09892787126340849
1.1702127659574462E-4     0.09589385507666028
1.1744680851063824E-4     0.09285701426821091
1.1787234042553185E-4     0.0898173488380603
1.1829787234042546E-4     0.08677485878620855
1.1872340425531909E-4     0.0837299554755121
1.191489361702127E-4      0.0806828818448347
1.1957446808510631E-4     0.07763363789417639
1.1999999999999994E-4     0.07458222362353711
1.2042553191489355E-4     0.07152863903291697
1.2085106382978716E-4     0.06847288412231584
1.2127659574468078E-4     0.0654149588917338
1.2170212765957441E-4     0.06235528335935146
1.2212765957446802E-4     0.059294109074344264
1.2255319148936163E-4     0.05623143603671219
1.2297872340425524E-4     0.05316726424645525
1.2340425531914888E-4     0.05010159370357344
1.238297872340425E-4      0.04703442440806675
1.242553191489361E-4      0.04396575635993521
1.246808510638297E-4      0.04089580543104709
1.2510638297872332E-4     0.037824984850619005
1.2553191489361694E-4     0.03475329461865097
1.2595744680851055E-4     0.03168073473514297
1.2638297872340416E-4     0.02860730520009502
1.268085106382978E-4      0.02553300601350709
1.272340425531914E-4      0.02245783717537922
1.2765957446808505E-4     0.019382036311132823
1.2808510638297863E-4     0.0163059238236824
1.2851063829787224E-4     0.01322949971302795
1.2893617021276588E-4     0.010152763979169473
1.293617021276595E-4      0.007075716622106977
1.297872340425531E-4      0.003998357641840449
1.302127659574467E-4      9.206870383698994E-4
1.3063829787234032E-4     -0.0021569185159016043
1.3106382978723396E-4     -0.005234282945648603
1.3148936170212755E-4     -0.008311406250871092
1.3191489361702118E-4     -0.011388288431569074
1.3234042553191482E-4     -0.014464929487742554
1.3276595744680843E-4     -0.017541329419391523
1.3319148936170205E-4     -0.020617488226515986
1.3361702127659568E-4     -0.023693145997088206
1.340425531914893E-4      -0.026768005025733156
1.344680851063829E-4      -0.02984206531245083
1.3489361702127652E-4     -0.03291532685724124
1.3531914893617016E-4     -0.03598778966010437
1.3574468085106377E-4     -0.039059453721040235
1.3617021276595738E-4     -0.042130319040048825
1.36595744680851E-4       -0.04520022097274472
1.370212765957446E-4      -0.048268833187593604
1.374468085106382E-4      -0.05133615568459548
1.3787234042553182E-4     -0.054402188463750355
1.3829787234042546E-4     -0.05746693152505824
1.3872340425531907E-4     -0.0605303848685191
1.3914893617021268E-4     -0.06359254849413297
1.395744680851063E-4      -0.06665312660723366
1.399999999999999E-4      -0.06971194700246211
1.4042553191489352E-4     -0.07276900967981831
1.4085106382978716E-4     -0.0758243146393023
1.4127659574468077E-4     -0.07887786188091406
1.4170212765957438E-4     -0.08192965140465355
1.42127659574468E-4       -0.08497968321052082
1.4255319148936163E-4     -0.08802770068708957
1.429787234042552E-4      -0.0910734765593691
1.4340425531914882E-4     -0.0941170108273594
1.4382978723404246E-4     -0.0971583034910605
1.4425531914893607E-4     -0.1001973545504724
1.446808510638297E-4      -0.10323416400559508
1.4510638297872332E-4     -0.10626873185642856
1.4553191489361696E-4     -0.10930093914337793
1.4595744680851054E-4     -0.1123304644118303
1.4638297872340416E-4     -0.11535730766178562
1.468085106382978E-4      -0.11838146889324395
1.472340425531914E-4      -0.1214029481062053
1.4765957446808502E-4     -0.12442174530066963
1.4808510638297863E-4     -0.12743786047663694
1.4851063829787224E-4     -0.13045109499794183
1.4893617021276588E-4     -0.13346124996157072
1.493617021276595E-4      -0.13646832536752362
1.497872340425531E-4      -0.1394723212158005
1.5021276595744674E-4     -0.14247323750640142
1.5063829787234035E-4     -0.14547107423932631
1.5106382978723396E-4     -0.14846583141457526
1.5148936170212757E-4     -0.15145721725893202
1.519148936170212E-4      -0.15444511939398264
1.523404255319148E-4      -0.15742953781972707
1.5276595744680843E-4     -0.16041047253616542
1.5319148936170204E-4     -0.16338792354329762
1.5361702127659563E-4     -0.16636189084112363
1.5404255319148927E-4     -0.1693323744296435
1.5446808510638288E-4     -0.1722991869196723
1.548936170212765E-4      -0.1752621121294413
1.553191489361701E-4      -0.17822115005895042
1.557446808510637E-4      -0.18117630070819984
1.5617021276595732E-4     -0.18412756407718947
1.5659574468085093E-4     -0.18707494016591925
1.5702127659574457E-4     -0.19001842897438925
1.574468085106382E-4      -0.19295790046361383
1.578723404255318E-4      -0.19589312811193993
1.5829787234042543E-4     -0.19882411191936747
1.5872340425531904E-4     -0.20175085188589656
1.5914893617021266E-4     -0.20467334801152715
1.595744680851063E-4      -0.2075916002962592
1.599999999999999E-4      -0.21050560874009275
1.6042553191489354E-4     -0.21341514924927327
1.6085106382978715E-4     -0.21632010238908284
1.6127659574468077E-4     -0.2192204681595214
1.6170212765957438E-4     -0.22211624656058893
1.62127659574468E-4       -0.22500743759228553
1.6255319148936163E-4     -0.2278940412546111
1.6297872340425524E-4     -0.2307760575475657
1.6340425531914885E-4     -0.23365330306585036
1.6382978723404246E-4     -0.23652560597388056
1.642553191489361E-4      -0.2393929662716562
1.646808510638297E-4      -0.24225538395917728
1.6510638297872332E-4     -0.24511285903644392
1.6553191489361693E-4     -0.24796539150345592
1.6595744680851054E-4     -0.2508129813602134
1.6638297872340415E-4     -0.2536555291379891
1.668085106382978E-4      -0.25649281509462984
1.6723404255319138E-4     -0.25932483923013555
1.6765957446808501E-4     -0.2621516015445063
1.6808510638297863E-4     -0.2649731020377422
1.6851063829787224E-4     -0.26778934070984306
1.6893617021276588E-4     -0.270600317560809
1.693617021276595E-4      -0.27340586501445174
1.697872340425531E-4      -0.2762058531435244
1.702127659574467E-4      -0.2790002819480272
1.7063829787234032E-4     -0.28178915142795985
1.7106382978723396E-4     -0.2845724615833227
1.7148936170212757E-4     -0.2873502124141155
1.7191489361702118E-4     -0.29012240392033833
1.7234042553191482E-4     -0.2928888446504802
1.7276595744680843E-4     -0.29564942179395076
1.7319148936170204E-4     -0.29840413535074994
1.7361702127659565E-4     -0.3011529853208777
1.7404255319148926E-4     -0.30389597170433436
1.744680851063829E-4      -0.3066330945011194
1.7489361702127651E-4     -0.3093643537112333
1.7531914893617015E-4     -0.31208963813843277
1.7574468085106374E-4     -0.3148087655429406
1.7617021276595735E-4     -0.31752173592475674
1.7659574468085099E-4     -0.32022854928388117
1.770212765957446E-4      -0.322929205620314
1.774468085106382E-4      -0.32562370493405507
1.7787234042553182E-4     -0.3283120472251045
1.7829787234042543E-4     -0.33099412980507265
1.7872340425531904E-4     -0.33366979288258286
1.7914893617021265E-4     -0.3363390364576352
1.795744680851063E-4      -0.3390018605302297
1.7999999999999993E-4     -0.34165826510036645
1.8042553191489351E-4     -0.3443082501680452
1.8085106382978715E-4     -0.3469518157332661
1.8127659574468076E-4     -0.34958878644974073
1.8170212765957437E-4     -0.3522190814419126
1.8212765957446799E-4     -0.35484270070978147
1.825531914893616E-4      -0.3574596442533475
1.829787234042552E-4      -0.36006991207261085
1.8340425531914882E-4     -0.36267350416757116
1.8382978723404243E-4     -0.3652704205382287
1.8425531914893607E-4     -0.36786052420809273
1.8468085106382968E-4     -0.37044368722666127
1.851063829787233E-4      -0.3730199095939344
1.8553191489361693E-4     -0.37558919130991203
1.8595744680851054E-4     -0.3781515323745943
1.8638297872340418E-4     -0.38070693278798107
1.868085106382978E-4      -0.38325539255007246
1.8723404255319143E-4     -0.3857968343157385
1.8765957446808504E-4     -0.38833109931448084
1.8808510638297862E-4     -0.39085818754629953
1.8851063829787226E-4     -0.3933780990111945
1.8893617021276585E-4     -0.39589083370916595
1.8936170212765949E-4     -0.3983963916402135
1.897872340425531E-4      -0.4008947728043375
1.9021276595744673E-4     -0.4033858442880482
1.9063829787234032E-4     -0.4058695169603649
1.9106382978723393E-4     -0.4083457908212874
1.9148936170212757E-4     -0.41081466587081594
1.9191489361702115E-4     -0.4132761421089506
1.923404255319148E-4      -0.4157302195356909
1.927659574468084E-4      -0.41817689815103737
1.93191489361702E-4       -0.4206160343984954
1.9361702127659562E-4     -0.42304754473872325
1.9404255319148926E-4     -0.425471429171721
1.9446808510638287E-4     -0.42788768769748853
1.9489361702127649E-4     -0.43029632031602594
1.953191489361701E-4      -0.4326973270273332
1.957446808510637E-4      -0.43509070783141035
1.9617021276595732E-4     -0.43747637750965246
1.9659574468085096E-4     -0.4398542045113609
1.9702127659574454E-4     -0.4422241888365355
1.9744680851063818E-4     -0.4445863304851763
1.978723404255318E-4      -0.44694062945728347
1.9829787234042543E-4     -0.44928708575285664
1.9872340425531904E-4     -0.45162569937189617
1.9914893617021268E-4     -0.4539563846858009
1.9957446808510626E-4     -0.4562790326548483
1.9999999999999987E-4     -0.45859364327903845
2.004255319148935E-4      -0.4609002165583713
2.0085106382978715E-4     -0.4631987524928471
2.0127659574468076E-4     -0.4654892510824655
2.0170212765957437E-4     -0.46777171232722664
2.02127659574468E-4       -0.47004600075703645
2.0255319148936162E-4     -0.4723120613532312
2.029787234042552E-4      -0.47456989411581096
2.0340425531914887E-4     -0.47681949904477566
2.0382978723404246E-4     -0.4790608761401256
2.042553191489361E-4      -0.48129402540186017
2.046808510638297E-4      -0.48351894682997987
2.0510638297872332E-4     -0.4857355379487003
2.0553191489361693E-4     -0.4879437058116659
2.0595744680851054E-4     -0.49014345041887664
2.0638297872340415E-4     -0.4923347717703326
2.0680851063829776E-4     -0.49451766986603385
2.0723404255319137E-4     -0.49669214470598005
2.0765957446808498E-4     -0.4988581962901716
2.080851063829786E-4      -0.5010157623905651
2.085106382978722E-4      -0.5031647328398277
2.0893617021276582E-4     -0.505305107637959
2.0936170212765946E-4     -0.5074368867849591
2.097872340425531E-4      -0.5095600702808283
2.1021276595744668E-4     -0.5116746581255662
2.1063829787234032E-4     -0.5137806503191732
2.1106382978723393E-4     -0.5158779413616843
2.1148936170212754E-4     -0.517966474027924
2.1191489361702115E-4     -0.5200462483178923
2.1234042553191476E-4     -0.5221172642315891
2.1276595744680837E-4     -0.5241795217690146
2.1319148936170198E-4     -0.5262330209301685
2.136170212765956E-4      -0.5282777617150513
2.140425531914892E-4      -0.5303136370634784
2.1446808510638282E-4     -0.5323405886068118
2.1489361702127643E-4     -0.5343586163450513
2.1531914893617004E-4     -0.536367720278197
2.1574468085106365E-4     -0.5383679004062489
2.1617021276595726E-4     -0.5403591567292068
2.1659574468085087E-4     -0.542341489247071
2.170212765957445E-4      -0.5443148328374047
2.1744680851063815E-4     -0.5462790974730207
2.1787234042553176E-4     -0.5482342831539191
2.1829787234042537E-4     -0.5501803898801
2.1872340425531898E-4     -0.5521174176515633
2.1914893617021265E-4     -0.5540453664683089
2.1957446808510626E-4     -0.5559642363303371
2.199999999999999E-4      -0.5578739592429012
2.2042553191489348E-4     -0.5597744639650685
2.208510638297871E-4      -0.5616657504968391
2.2127659574468073E-4     -0.5635478188382129
2.2170212765957432E-4     -0.5654206689891903
2.2212765957446796E-4     -0.5672843009497708
2.2255319148936157E-4     -0.5691387147199547
2.229787234042552E-4      -0.5709838131629216
2.234042553191488E-4      -0.5728195584428244
2.238297872340424E-4      -0.5746459505596628
2.2425531914893604E-4     -0.576462989513437
2.2468085106382965E-4     -0.5782706753041473
2.2510638297872326E-4     -0.5800690079317932
2.2553191489361687E-4     -0.5818579873963748
2.2595744680851048E-4     -0.5836375407999789
2.2638297872340412E-4     -0.5854076058963295
2.268085106382977E-4      -0.5871681826854265
2.2723404255319137E-4     -0.5889192711672702
2.2765957446808498E-4     -0.5906608713418607
2.280851063829786E-4      -0.5923929832091975
2.2851063829787223E-4     -0.5941156067692811
2.2893617021276587E-4     -0.5958286924227626
2.2936170212765948E-4     -0.5975321722802442
2.2978723404255307E-4     -0.599226046341726
2.302127659574467E-4      -0.600910314607208
2.3063829787234032E-4     -0.6025849770766903
2.3106382978723393E-4     -0.6042500337501726
2.3148936170212754E-4     -0.6059054846276551
2.3191489361702118E-4     -0.6075512524440678
2.3234042553191476E-4     -0.6091873040758148
2.3276595744680837E-4     -0.6108136395228954
2.3319148936170198E-4     -0.6124302587853099
2.336170212765956E-4      -0.6140371618630587
2.3404255319148923E-4     -0.6156343487561411
2.3446808510638284E-4     -0.6172218194645576
2.3489361702127648E-4     -0.6187995112325718
2.3531914893617007E-4     -0.6203673756442922
2.3574468085106368E-4     -0.6219254126997185
2.3617021276595732E-4     -0.623473622398851
2.3659574468085093E-4     -0.6250120047416897
2.3702127659574454E-4     -0.6265405597282343
2.3744680851063818E-4     -0.628059287358485
2.378723404255318E-4      -0.62956815897898
2.382978723404254E-4      -0.6310671060337085
2.3872340425531898E-4     -0.6325561285226703
2.391489361702126E-4      -0.6340352264458656
2.3957446808510623E-4     -0.6355043998032948
2.3999999999999982E-4     -0.6369636485949568
2.4042553191489345E-4     -0.6384129728208527
2.4085106382978707E-4     -0.6398523235112785
2.412765957446807E-4      -0.6412816659686135
2.417021276595743E-4      -0.6427010001928577
2.4212765957446793E-4     -0.6441103261840113
2.4255319148936154E-4     -0.6455096439420743
2.4297872340425515E-4     -0.6468989534670464
2.434042553191488E-4      -0.6482782547589279
2.4382978723404243E-4     -0.6496474766954592
2.4425531914893604E-4     -0.651006608589699
2.4468085106382965E-4     -0.6523556504416472
2.4510638297872326E-4     -0.653694602251304
2.4553191489361687E-4     -0.6550234640186694
2.4595744680851054E-4     -0.656342235743743
2.4638297872340415E-4     -0.6576509174265252
2.4680851063829776E-4     -0.6589494619634352
2.4723404255319137E-4     -0.6602378390257041
2.47659574468085E-4       -0.6615160486133317
2.480851063829786E-4      -0.6627840907263182
2.4851063829787226E-4     -0.6640419653646636
2.4893617021276587E-4     -0.6652896725283678
2.493617021276595E-4      -0.6665272122174308
2.497872340425531E-4      -0.6677545533417305
2.502127659574467E-4      -0.6689716636573098
2.5063829787234026E-4     -0.6701785431641688
2.510638297872339E-4      -0.6713751918623075
2.5148936170212754E-4     -0.6725616097517262
2.5191489361702115E-4     -0.6737377968324243
2.5234042553191476E-4     -0.6749037531044021
2.5276595744680837E-4     -0.6760594355899369
2.53191489361702E-4       -0.6772048317245949
2.536170212765956E-4      -0.6783399415083762
2.540425531914892E-4      -0.6794647649412807
2.5446808510638287E-4     -0.6805793020233086
2.548936170212765E-4      -0.6816835527544596
2.553191489361701E-4      -0.6827775171347339
2.557446808510637E-4      -0.6838611619828732
2.561702127659573E-4      -0.6849344695637581
2.565957446808509E-4      -0.6859974398773889
2.570212765957446E-4      -0.6870500729237656
2.574468085106382E-4      -0.6880923687028881
2.578723404255318E-4      -0.6891243272147562
2.582978723404254E-4      -0.6901459484593704
2.587234042553191E-4      -0.6911572121919842
2.591489361702127E-4      -0.6921580998832173
2.595744680851063E-4      -0.6931486115330698
2.599999999999999E-4      -0.6941287471415419
2.6042553191489353E-4     -0.6950985067086334
2.6085106382978715E-4     -0.696057890234344
2.6127659574468076E-4     -0.6970068977186742
2.6170212765957437E-4     -0.6979455067742102
2.62127659574468E-4       -0.6988737091599548
2.625531914893616E-4      -0.6997915048759084
2.629787234042552E-4      -0.7006988939220707
2.634042553191488E-4      -0.7015958762984419
2.638297872340424E-4      -0.7024824520050217
2.6425531914893604E-4     -0.7033586210418105
2.6468085106382965E-4     -0.704224364447634
2.6510638297872326E-4     -0.7050796787804297
2.6553191489361687E-4     -0.705924564040197
2.659574468085105E-4      -0.706759020226936
2.663829787234041E-4      -0.7075830473406473
2.668085106382977E-4      -0.7083966453813301
2.672340425531913E-4      -0.7091998143489848
2.67659574468085E-4       -0.7099925506168854
2.680851063829786E-4      -0.7107748439036169
2.685106382978722E-4      -0.7115466942091792
2.6893617021276587E-4     -0.7123081015335723
2.693617021276595E-4      -0.7130590658767963
2.6978723404255314E-4     -0.7137995872388511
2.7021276595744675E-4     -0.7145296656197367
2.7063829787234037E-4     -0.7152492809030881
2.71063829787234E-4       -0.7159584514397063
2.714893617021276E-4      -0.7166571772295909
2.719148936170212E-4      -0.7173454582727423
2.723404255319148E-4      -0.7180232945691605
2.727659574468084E-4      -0.7186906861188449
2.7319148936170203E-4     -0.7193476329217962
2.736170212765957E-4      -0.7199942196866527