% Model:              PLacek_MembTVNJ_ArticleDims_Rh20um_hg5um_To2MHz_PHedit.mph
% Version:            COMSOL 6.3.0.335
% Date:               May 22 2025, 10:55
% Dimension:          1
% Nodes:              708
% Expressions:        1
% Description:        Line graph
% Arc length (m)          real(p)
0                         NaN
4.2780521530280657E-7     -0.08181684016935784
8.556104306056131E-7      -0.08198921904632837
1.2834156459084197E-6     -0.08216513413772944
1.7112208612112263E-6     -0.08234134230626117
2.139026076514033E-6      -0.08251480530427364
2.5668312918168394E-6     -0.08268267384515705
2.994636507119646E-6      -0.08284227313795173
3.4224417224224526E-6     -0.08299890210565879
3.85024693772526E-6       -0.08313497307446134
4.278052153028066E-6      -0.08328014463091074
4.705857368330872E-6      -0.08346326573239199
5.133662583633679E-6      -0.08371240314678581
5.561467798936486E-6      -0.08405486778359839
5.989273014239292E-6      -0.0845172399685716
6.410088963256641E-6      -0.08471142238806295
6.830904912273991E-6      -0.08505788498566691
7.25172086129134E-6       -0.08555032304986672
7.672536810308689E-6      -0.0861827015411121
8.09335275932604E-6       -0.08694924082595103
8.514168708343389E-6      -0.08784440330734805
8.934984657360738E-6      -0.0888628808861312
9.335662524497946E-6      -0.0884619903870957
9.736340391635153E-6      -0.08886237680786493
1.0137018258772359E-5     -0.0898166304525985
1.0537696125909567E-5     -0.09107401443179777
1.0938373993046773E-5     -0.09238040854304115
1.1339051860183981E-5     -0.09347825201199057
1.1739729727321188E-5     -0.09410648506660944
1.2124875559851212E-5     -0.09388283559760328
1.2510021392381236E-5     -0.09497463205620006
1.289516722491126E-5      -0.09680574303201536
1.3280313057441285E-5     -0.09875914184465553
1.366545888997131E-5      -0.10017321242668902
1.4050604722501333E-5     -0.10033764740654255
1.4435750555031359E-5     -0.09848888488622105
1.481289903671961E-5      -0.10527805821310031
1.519004751840786E-5      -0.10817823637257265
1.5567196000096113E-5     -0.10846085817920822
1.5944344481784364E-5     -0.10768244132950117
1.6321492963472616E-5     -0.1077692266921446
1.6698641445160864E-5     -0.11113388519863976
1.7075789926849116E-5     -0.12083941138819546
1.7433901167700504E-5     -0.1188921470163619
1.779201240855189E-5      -0.12014605321149419
1.8150123649403275E-5     -0.12377196690497265
1.850823489025466E-5      -0.12883852168562396
1.886634613110605E-5      -0.13429590003310288
1.9224457371957433E-5     -0.13895638417917355
1.958256861280882E-5      -0.14147094469822338
1.9940481295372828E-5     -0.14544520110112957
2.0298393977936837E-5     -0.15040883910421213
2.0656306660500846E-5     -0.15595446988001668
2.1014219343064855E-5     -0.16159275850427657
2.137213202562886E-5      -0.16673072867673788
2.173004470819287E-5      -0.17064278946618647
2.208795739075688E-5      -0.17243146698016074
2.245944263531065E-5      -0.17863176371655012
2.283092787986442E-5      -0.1834629316552675
2.3202413124418192E-5     -0.18741140062065917
2.3573898368971962E-5     -0.19092197295939933
2.3945383613525733E-5     -0.194402183239742
2.4316868858079504E-5     -0.19822612127597367
2.4688354102633274E-5     -0.2027377940032478
2.5091993018119224E-5     -0.20660584573892155
2.549563193360517E-5      -0.2103887535172386
2.5899270849091118E-5     -0.2141117268305601
2.6302909764577068E-5     -0.21780023506293456
2.6706548680063018E-5     -0.22148001084787816
2.7110187595548965E-5     -0.22517705347829606
2.7513826511034915E-5     -0.22891763236963764
2.793795334649159E-5      -0.2324730878162029
2.8362080181948263E-5     -0.23603388700816447
2.8786207017404936E-5     -0.23957565395316752
2.9210333852861612E-5     -0.2430751686337562
2.9634460688318288E-5     -0.24651029928596246
3.005858752377496E-5      -0.24985993938365206
3.0482714359231637E-5     -0.2531039489514024
3.0910519574534446E-5     -0.2563544492741506
3.133832478983725E-5      -0.2595531573213218
3.176613000514005E-5      -0.2626979270541157
3.219393522044286E-5      -0.26578658210106093
3.262174043574567E-5      -0.2688169152201318
3.304954565104847E-5      -0.27178668774950693
3.347735086635128E-5      -0.2746936290464879
3.3905156081654086E-5     -0.27758297621350736
3.4332961296956895E-5     -0.2804155612118624
3.47607665122597E-5       -0.28319517638375963
3.518857172756251E-5      -0.2859255050744385
3.5616376942865314E-5     -0.28861012552017073
3.604418215816812E-5      -0.2912525145709272
3.647198737347093E-5      -0.29385605125605707
3.689979258877374E-5      -0.29640421061998684
3.732759780407654E-5      -0.2989133118528277
3.775540301937935E-5      -0.30138321458960415
3.818320823468215E-5      -0.3038137763925
3.861101344998497E-5      -0.3062048527124965
3.903881866528777E-5      -0.30855629685005287
3.946662388059058E-5      -0.3108679599150208
3.989442909589339E-5      -0.31314771718021617
4.032223431119619E-5      -0.31539088179604685
4.075003952649899E-5      -0.31759820944546213
4.117784474180181E-5      -0.3197704446929422
4.160564995710461E-5      -0.3219083211883177
4.203345517240741E-5      -0.3240125618659215
4.246126038771022E-5      -0.32608387913966236
4.288906560301303E-5      -0.32812061180171115
4.331687081831583E-5      -0.33012612287064813
4.374467603361863E-5      -0.3321006802959817
4.417248124892144E-5      -0.3340445520272325
4.460028646422425E-5      -0.33595800601389453
4.502809167952706E-5      -0.33784131020550234
4.545589689482986E-5      -0.3396947325515632
4.588370211013267E-5      -0.3415201721646373
4.631150732543547E-5      -0.3433176189201857
4.673931254073827E-5      -0.34508743326122954
4.716711775604109E-5      -0.34682997563076445
4.759492297134389E-5      -0.3485456064717913
4.80227281866467E-5       -0.35023468622733667
4.845053340194951E-5      -0.3518975753403958
4.8878338617252316E-5     -0.3535349467672733
4.9306143832555124E-5     -0.3551473446837787
4.9733949047857926E-5     -0.35673505640216546
5.0161754263160735E-5     -0.35829836923469616
5.0589559478463544E-5     -0.35983757049361303
5.1017364693766346E-5     -0.361352947491171
5.1445169909069154E-5     -0.36284478753964583
5.187297512437196E-5      -0.3643136203511463
5.230078033967478E-5      -0.36575997212345623
5.272858555497758E-5      -0.3671840819882836
5.315639077028039E-5      -0.3685861890772937
5.35841959855832E-5       -0.3699665325222065
5.4012001200886006E-5     -0.3713253514546943
5.4439806416188815E-5     -0.3726628850064456
5.4867611631491624E-5     -0.3739795692323201
5.529541684679443E-5      -0.3752759022418677
5.5723222062097234E-5     -0.3765520788848226
5.6151027277400036E-5     -0.37780829401089816
5.657883249270284E-5      -0.3790447424698406
5.7006637708005654E-5     -0.38026161911136597
5.7434442923308456E-5     -0.3814591187852079
5.786224813861127E-5      -0.38263764244562565
5.829005335391407E-5      -0.3837976264716186
5.8717858569216875E-5     -0.3849392316673478
5.914566378451969E-5      -0.38606261883694426
5.957346899982249E-5      -0.3871679487845502
6.00012742151253E-5       -0.38825538231431334
6.042907943042811E-5      -0.38932508023038065
6.085688464573092E-5      -0.3903774019533865
6.128468986103373E-5      -0.39141274255826125
6.171249507633653E-5      -0.392431234454423
6.214030029163933E-5      -0.3934330100512756
6.256810550694215E-5      -0.39441820175823844
6.299591072224495E-5      -0.3953869419847332
6.342371593754775E-5      -0.3963393631401646
6.385152115285055E-5      -0.39727579271690694
6.427932636815337E-5      -0.3981965904418189
6.470713158345617E-5      -0.3991018652634713
6.513493679875897E-5      -0.39999172613043255
6.556274201406177E-5      -0.4008662819912831
6.599054722936459E-5      -0.401725641794588
6.641835244466739E-5      -0.40256991448892626
6.68461576599702E-5       -0.40339940142887937
6.727396287527301E-5      -0.40421443240043503
6.770176809057582E-5      -0.40501509681075837
6.812957330587863E-5      -0.4058014840670048
6.855737852118144E-5      -0.4065736835763359
6.898518373648426E-5      -0.40733178474591497
6.941298895178706E-5      -0.40807587698289954
6.984079416708987E-5      -0.40880623990056514
7.026859938239266E-5      -0.40952317769339874
7.069640459769546E-5      -0.4102267634106112
7.112420981299828E-5      -0.410917070101403
7.15520150283011E-5       -0.41159417081497784
7.197982024360388E-5      -0.41225813860053606
7.24076254589067E-5       -0.41290904650728627
7.283543067420951E-5      -0.4135471560026812
7.326323588951232E-5      -0.4141727490097976
7.369104110481512E-5      -0.4147858848795154
7.411884632011793E-5      -0.41538662296270923
7.454665153542074E-5      -0.4159750226102513
7.497445675072354E-5      -0.41655114317301717
7.540226196602635E-5      -0.41711504400188365
7.583006718132917E-5      -0.41766697114917795
7.625787239663197E-5      -0.41820718707934895
7.668567761193477E-5      -0.4187357396438985
7.711348282723757E-5      -0.4192526766943223
7.754128804254038E-5      -0.4197580460821264
7.796909325784319E-5      -0.4202518956588069
7.8396898473146E-5        -0.4207342732758639
7.88247036884488E-5       -0.42120541232987885
7.925250890375161E-5      -0.42166555745027823
7.968031411905441E-5      -0.42211474673270344
8.010811933435721E-5      -0.4225530182727938
8.053592454966002E-5      -0.4229804101661906
8.096372976496282E-5      -0.4233969605085378
8.139153498026563E-5      -0.4238027073954704
8.181934019556845E-5      -0.42419787807491055
8.224714541087125E-5      -0.4245826935688931
8.267495062617405E-5      -0.4249571846772663
8.310275584147686E-5      -0.4253213821998757
8.353056105677967E-5      -0.4256753169365707
8.395836627208249E-5      -0.426019019687191
8.438617148738529E-5      -0.42635252125158335
8.48139767026881E-5       -0.4266760414572241
8.52417819179909E-5       -0.42698977475935634
8.566958713329371E-5      -0.4272937492169335
8.609739234859652E-5      -0.4275879928889096
8.652519756389932E-5      -0.42787253383423784
8.695300277920214E-5      -0.4281474001118784
8.738080799450494E-5      -0.42841261978077927
8.780861320980776E-5      -0.42866835463573194
8.823641842511056E-5      -0.4289148401091367
8.866422364041336E-5      -0.4291521019748036
8.909202885571618E-5      -0.429380166006527
8.951983407101899E-5      -0.4295990579781174
8.99476392863218E-5       -0.4298088036633773
9.037544450162461E-5      -0.43000942883610144
9.080324971692743E-5      -0.43020095518852264
9.123105493223023E-5      -0.4303838044576923
9.165886014753303E-5      -0.4305579987038517
9.208666536283583E-5      -0.430723559987237
9.251447057813863E-5      -0.4308805103681124
9.294227579344145E-5      -0.4310288719067043
9.337008100874425E-5      -0.4311686666632559
9.379788622404705E-5      -0.431298709470849
9.422569143934985E-5      -0.43142126332774855
9.465349665465267E-5      -0.43153603276100577
9.508130186995547E-5      -0.43164273038324547
9.550910708525827E-5      -0.43174107661802696
9.593691230056108E-5      -0.4318307994362306
9.636471751586388E-5      -0.4319116341030769
9.679252273116668E-5      -0.43198356771937874
9.72203279464695E-5       -0.4320481384035961
9.764813316177228E-5      -0.4321048285475515
9.80759383770751E-5       -0.432153064298597
9.85037435923779E-5       -0.432192207706731
9.893154880768072E-5      -0.43222154751822833
9.935935402298352E-5      -0.43224028833549627
9.978715923828633E-5      -0.43225750765498683
1.0021496445358912E-4     -0.4322664681329336
1.0064276966889192E-4     -0.43226770655561886
1.0107057488419474E-4     -0.4322617411994693
1.0149838009949755E-4     -0.4322490726220189
1.0192618531480036E-4     -0.4322301844127812
1.0235399053010316E-4     -0.4322055439061371
1.0278179574540597E-4     -0.4321706775118199
1.0320960096070879E-4     -0.4321289142877155
1.0363740617601158E-4     -0.4320801051439115
1.0406521139131439E-4     -0.43202410099052163
1.0449301660661721E-4     -0.43196075273763196
1.0492082182192001E-4     -0.43188991129534415
1.0534862703722283E-4     -0.4318114275737588
1.0577643225252563E-4     -0.43172557954095986
1.0620423746782844E-4     -0.4316331467516096
1.0663204268313123E-4     -0.43153400408536186
1.0705984789843405E-4     -0.4314280264218852
1.0748765311373686E-4     -0.431315088640848
1.0791545832903966E-4     -0.43119506562190496
1.0834326354434247E-4     -0.4310678322447108
1.0877106875964528E-4     -0.43093472822409423
1.0919887397494808E-4     -0.4307949622554948
1.0962667919025089E-4     -0.43064856199958895
1.100544844055537E-4      -0.430495556079182
1.104822896208565E-4      -0.4303359741213662
1.1091009483615932E-4     -0.43016984680201276
1.1133790005146212E-4     -0.4299972058925005
1.1176570526676494E-4     -0.4298157965722901
1.1219351048206774E-4     -0.42962952787392067
1.1262131569737054E-4     -0.4294379278867758
1.1304912091267334E-4     -0.4292405409729711
1.1347692612797616E-4     -0.4290369270720508
1.1390473134327895E-4     -0.4288266610407996
1.1433253655858176E-4     -0.4286093320265384
1.1476034177388458E-4     -0.42838831388264553
1.1518814698918738E-4     -0.42816075766255973
1.1561595220449018E-4     -0.4279268111897286
1.16043757419793E-4       -0.42768662228756904
1.1647156263509581E-4     -0.4274403387794967
1.1689936785039863E-4     -0.42718810848892547
1.1732717306570143E-4     -0.4269300792392765
1.1775497828100424E-4     -0.42666577453201443
1.1818278349630703E-4     -0.4263958546406243
1.1861058871160983E-4     -0.42612030131678735
1.1903839392691265E-4     -0.4258390963121853
1.1946619914221545E-4     -0.4255522213785317
1.1989400435751825E-4     -0.42525965826749496
1.2032180957282107E-4     -0.4249613887307511
1.2074961478812388E-4     -0.42465753637917353
1.2117742000342669E-4     -0.42434837909762596
1.2160522521872949E-4     -0.42403389000251257
1.2203303043403229E-4     -0.4237140422101676
1.2246083564933512E-4     -0.42338880883699437
1.2288864086463792E-4     -0.42305816299936355
1.2331644607994072E-4     -0.4227220778136174
1.2374425129524352E-4     -0.42238071798176324
1.2417205651054633E-4     -0.42203433939990986
1.2459986172584913E-4     -0.42168290330506875
1.2502766694115193E-4     -0.4213263709342777
1.2545547215645473E-4     -0.4209647035245116
1.2588327737175756E-4     -0.42059786231282326
1.2631108258706036E-4     -0.4202258085361753
1.267388878023632E-4      -0.4198489633991118
1.2716669301766597E-4     -0.41946722700793554
1.2759449823296877E-4     -0.419080611949579
1.280223034482716E-4      -0.41868913081101
1.284501086635744E-4      -0.41829279617913834
1.288779138788772E-4      -0.41789162064099744
1.2930571909418E-4        -0.4174856167834482
1.297335243094828E-4      -0.41707464679425327
1.301613295247856E-4      -0.4166592268695108
1.305891347400884E-4      -0.41623930078243804
1.310169399553912E-4      -0.4158148123062796
1.3144474517069401E-4     -0.4153857052142197
1.3187255038599684E-4     -0.41495192327949626
1.3230035560129964E-4     -0.4145134102753093
1.3272816081660245E-4     -0.41407257575610296
1.3315596603190525E-4     -0.41362681910295573
1.3358377124720805E-4     -0.4131763911112082
1.3401157646251088E-4     -0.4127215512995124
1.3443938167781368E-4     -0.4122625682924372
1.3486718689311648E-4     -0.4117997202233789
1.3529499210841929E-4     -0.411333295159048
1.357227973237221E-4      -0.41085761499931156
1.361506025390249E-4      -0.4103793924074101
1.365784077543277E-4      -0.4098981262099031
1.370062129696305E-4      -0.40941333251519646
1.374340181849333E-4      -0.40892454397496225
1.378618234002361E-4      -0.40843130908319003
1.382896286155389E-4      -0.40793319151055774
1.387174338308417E-4      -0.4074365848468302
1.391452390461445E-4      -0.4069349695417286
1.395730442614473E-4      -0.4064288133102096
1.4000084947675013E-4     -0.4059186001355416
1.4042865469205294E-4     -0.40540483098285557
1.4085645990735574E-4     -0.4048880245506193
1.4128426512265854E-4     -0.4043687180621447
1.4171207033796137E-4     -0.40384030714766106
1.4213987555326417E-4     -0.4033095127509985
1.4256768076856697E-4     -0.40277602365098686
1.4299548598386977E-4     -0.40223953935819945
1.4342329119917258E-4     -0.40169976965635246
1.4385109641447538E-4     -0.40115643416696123
1.442789016297782E-4      -0.4006092619361132
1.44706706845081E-4       -0.4000604699941473
1.451345120603838E-4      -0.39950836639448817
1.4556231727568659E-4     -0.39895299055044464
1.4599012249098941E-4     -0.39839438122388543
1.4641792770629222E-4     -0.39783257653859383
1.46845732921595E-4       -0.3972676139934358
1.4727353813689782E-4     -0.3966995304749564
1.4770134335220065E-4     -0.396128888586831
1.4812914856750345E-4     -0.3955552151189036
1.4855695378280625E-4     -0.3949785562348207
1.4898475899810905E-4     -0.3943989578484113
1.4941256421341186E-4     -0.39381646562529266
1.4984036942871466E-4     -0.3932311249845659
1.502681746440175E-4      -0.3926429811005203
1.5069597985932032E-4     -0.39205217210313015
1.511237850746231E-4      -0.3914587059913987
1.515515902899259E-4      -0.39086261921402693
1.5197939550522872E-4     -0.3902639481218465
1.5240720072053152E-4     -0.38966272896790227
1.5283500593583433E-4     -0.38905899790802134
1.5326281115113713E-4     -0.38845279100095725
1.5369061636643996E-4     -0.38784367244411133
1.5411842158174273E-4     -0.38723237297854585
1.5454622679704553E-4     -0.386618861926992
1.5497403201234834E-4     -0.38600310885722633
1.5540183722765116E-4     -0.38538508357941853
1.5582964244295397E-4     -0.3847647561438943
1.5625744765825677E-4     -0.38414209683860223
1.566852528735596E-4      -0.38351810145042214
1.571130580888624E-4      -0.3828919363309228
1.5754086330416517E-4     -0.3822636758436026
1.57968668519468E-4       -0.38163339435206417
1.583964737347708E-4      -0.3810011662198642
1.588242789500736E-4      -0.3803670658105847
1.592520841653764E-4      -0.3797311674877276
1.596798893806792E-4      -0.3790932787067583
1.60107694595982E-4       -0.37845366657679663
1.6053549981128481E-4     -0.3778123583360538
1.6096330502658764E-4     -0.3771693812227641
1.6139111024189047E-4     -0.37652476247509514
1.6181891545719325E-4     -0.3758785293313244
1.6224672067249608E-4     -0.3752307090295909
1.6267452588779888E-4     -0.3745814401254382
1.6310233110310168E-4     -0.3739307247147346
1.6353013631840448E-4     -0.3732786044760403
1.6395794153370728E-4     -0.3726251210879566
1.6438574674901009E-4     -0.3719703162290512
1.6481355196431292E-4     -0.37131423157789506
1.6524135717961572E-4     -0.37065690881308927
1.6566916239491852E-4     -0.36999841377698334
1.6609696761022132E-4     -0.3693387824882848
1.665247728255241E-4      -0.36867805663824804
1.6695257804082692E-4     -0.36801627791814817
1.6738038325612973E-4     -0.3673534880192866
1.6780818847143253E-4     -0.36668972863289057
1.6823599368673533E-4     -0.36602504145023607
1.6866379890203816E-4     -0.3653594933885663
1.6909160411734093E-4     -0.36469310943279487
1.6951940933264374E-4     -0.3640259337100294
1.6994721454794657E-4     -0.36335801034742493
1.7037501976324937E-4     -0.3626893834720879
1.7080282497855217E-4     -0.3620200972111679
1.7123063019385497E-4     -0.36135019569174653
1.716584354091578E-4      -0.3606797515284211
1.7208624062446057E-4     -0.36000876625429384
1.7251404583976338E-4     -0.35933728887804656
1.7294185105506618E-4     -0.35866536840833696
1.73369656270369E-4       -0.35799305385383134
1.737974614856718E-4      -0.3573203942231962
1.742252667009746E-4      -0.35664743852509206
1.7465307191627744E-4     -0.35597424316194837
1.7508087713158024E-4     -0.35530080411845694
1.7550868234688304E-4     -0.3546271741978099
1.7593648756218587E-4     -0.3539534062031668
1.7636429277748868E-4     -0.3532795529376989
1.767920979927915E-4      -0.3526056672045807
1.772199032080943E-4      -0.3519318018069858
1.776477084233971E-4      -0.3512579878585517
1.780755136386999E-4      -0.35058423326022276
1.785033188540027E-4      -0.3499105913911861
1.7893112406930551E-4     -0.34923711563062265
1.793589292846083E-4      -0.3485638593576945
1.7978673449991112E-4     -0.3478908759515967
1.802145397152139E-4      -0.34721821879147285
1.806423449305167E-4      -0.34654591061604906
1.810701501458195E-4      -0.34587396333355125
1.8149795536112233E-4     -0.34520242927697004
1.8192576057642513E-4     -0.34453136077932317
1.8235356579172793E-4     -0.34386081017360987
1.8278137100703073E-4     -0.3431908297928189
1.8320917622233353E-4     -0.34252147196995864
1.8363698143763634E-4     -0.3418527877263603
1.8406478665293914E-4     -0.341184745066639
1.8449259186824194E-4     -0.34051740169003764
1.8492039708354474E-4     -0.3398508152958985
1.8534820229884757E-4     -0.33918504358348506
1.8577600751415034E-4     -0.33852014425214233
1.8620381272945317E-4     -0.3378561750011213
1.86631617944756E-4       -0.3371931681955958
1.870594231600588E-4      -0.33653108247419666
1.874872283753616E-4      -0.3358699800739736
1.879150335906644E-4      -0.3352099232319199
1.8834283880596726E-4     -0.334550974185075
1.8877064402127007E-4     -0.33389319517044697
1.8919844923657287E-4     -0.3332366484250808
1.8962625445187567E-4     -0.3325813162261994
1.9005405966717847E-4     -0.33192719752680955
1.9048186488248125E-4     -0.3312743508451135
1.9090967009778408E-4     -0.3306228346993192
1.9133747531308685E-4     -0.3299727076076122
1.9176528052838965E-4     -0.329324028088225
1.9219308574369245E-4     -0.32867685465929486
1.9262089095899528E-4     -0.32803118078948373
1.9304869617429806E-4     -0.32738699697793044
1.9347650138960086E-4     -0.3267443597467412
1.939043066049037E-4      -0.32610332561802025
1.943321118202065E-4      -0.32546395111386384
1.947599170355093E-4      -0.3248262927563493
1.951877222508121E-4      -0.3241904070675716
1.9561552746611492E-4     -0.3235563186747448
1.960433326814177E-4      -0.3229239711770492
1.964711378967205E-4      -0.32229342557533047
1.968989431120233E-4      -0.32166474287043717
1.973267483273261E-4      -0.3210379840632061
1.9775455354262893E-4     -0.32041321015451
1.9818235875793174E-4     -0.3197904821451541
1.9861016397323456E-4     -0.319169808982858
1.9903796918853734E-4     -0.318551119299422
1.9946577440384014E-4     -0.3179344787789473
1.9989357961914297E-4     -0.3173199531055951
2.0032138483444577E-4     -0.3167076079634664
2.0074919004974857E-4     -0.31609750903672085
2.0117699526505138E-4     -0.3154897220094413
2.0160480048035418E-4     -0.31488419008308133
2.02032605695657E-4       -0.3142808998569728
2.024604109109598E-4      -0.31367991013410373
2.0288821612626264E-4     -0.3130812797174574
2.0331602134156544E-4     -0.3124850674099969
2.0374382655686824E-4     -0.3118913320147294
2.0417163177217107E-4     -0.3113001323346058
2.0459943698747387E-4     -0.310711438533114
2.0502724220277665E-4     -0.3101252155167257
2.0545504741807945E-4     -0.3095415200305978
2.0588285263338225E-4     -0.3089604088199729
2.0631065784868508E-4     -0.30838193863002616
2.0673846306398786E-4     -0.3078061662059856
2.0716626827929066E-4     -0.30723314829299603
2.0759407349459349E-4     -0.3066628783312756
2.080218787098963E-4      -0.3060952823650433
2.084496839251991E-4      -0.30553041959333316
2.0887748914050192E-4     -0.3049683492151046
2.0930529435580472E-4     -0.30440913042936363
2.0973309957110755E-4     -0.30385282243509076
2.1016090478641035E-4     -0.30329948443129007
2.1058871000171318E-4     -0.3027491056032502
2.1101651521701598E-4     -0.30220158408421965
2.1144432043231876E-4     -0.3016569846038271
2.118721256476216E-4      -0.30111537189163967
2.1229993086292436E-4     -0.3005768106772475
2.127277360782272E-4      -0.3000413656902104
2.1315554129353E-4        -0.2995091016601295
2.1358334650883282E-4     -0.29897991881227
2.140111517241356E-4      -0.2984537994663913
2.144389569394384E-4      -0.29793079739252115
2.1486676215474123E-4     -0.2974109663606923
2.1529456737004406E-4     -0.29689436014091997
2.1572237258534683E-4     -0.2963810325032501
2.1615017780064966E-4     -0.29587103721767977
2.1657798301595246E-4     -0.2953643212064014
2.1700578823125526E-4     -0.294860831305434
2.1743359344655804E-4     -0.2943606187206019
2.1786139866186087E-4     -0.2938637346577252
2.1828920387716367E-4     -0.2933702303225852
2.1871700909246647E-4     -0.292880156921003
2.1914481430776927E-4     -0.2923935656587861
2.1957261952307208E-4     -0.29191042465316136
2.2000042473837488E-4     -0.2914306448233664
2.2042822995367768E-4     -0.29095427818590097
2.2085603516898048E-4     -0.2904813767572877
2.212838403842833E-4      -0.29001199255402216
2.2171164559958608E-4     -0.28954617759261453
2.2213945081488891E-4     -0.2890839838895578
2.2256725603019174E-4     -0.2886253900482969
2.2299506124549454E-4     -0.28817025963937426
2.2342286646079735E-4     -0.28771865263174107
2.2385067167610018E-4     -0.28727062899442046
2.24278476891403E-4       -0.2868262486964134
2.247062821067058E-4      -0.2863855717066984
2.251340873220086E-4      -0.28594865799426844
2.2556189253731144E-4     -0.2855153547146528
2.259896977526142E-4      -0.2850856578369079
2.2641750296791701E-4     -0.28465960991890865
2.2684530818321982E-4     -0.2842372535185617
2.2727311339852262E-4     -0.2838186311937367
2.2770091861382545E-4     -0.28340378550233264
2.2812872382912825E-4     -0.28299275900224263
2.2855652904443108E-4     -0.28258548120347343
2.2898433425973385E-4     -0.2821818869166539
2.2941213947503665E-4     -0.2817820171846293
2.2983994469033948E-4     -0.28138591305028093
2.3026774990564229E-4     -0.2809936155564716
2.306955551209451E-4      -0.280605165746049
2.311233603362479E-4      -0.28022060466187526
2.3155116555155072E-4     -0.2798398434466661
2.319789707668535E-4      -0.2794628337741947
2.324067759821563E-4      -0.2790896108133905
2.328345811974591E-4      -0.27872020973320427
2.3326238641276193E-4     -0.278354665702562
2.336901916280647E-4      -0.27799301389039244
2.3411799684336753E-4     -0.27763528946563193
2.3454580205867033E-4     -0.2772813937932333
2.3497360727397316E-4     -0.2769313023800755
2.354014124892759E-4      -0.2765850398853765
2.3582921770457876E-4     -0.27624263096833895
2.3625702291988157E-4     -0.2759041002881679
2.3668482813518437E-4     -0.27556947250405156
2.3711263335048717E-4     -0.27523877227520516
2.3754043856578997E-4     -0.27491198461830235
2.3796824378109277E-4     -0.274588988111878
2.3839604899639558E-4     -0.2742698141532006
2.3882385421169838E-4     -0.2739544941395875
2.3925165942700118E-4     -0.27364305946831174
2.39679464642304E-4       -0.27333554153666073
2.401072698576068E-4      -0.2730319717419206
2.4053507507290964E-4     -0.2727322718957753
2.4096288028821244E-4     -0.27243635530946025
2.4139068550351524E-4     -0.27214425003508735
2.4181849071881805E-4     -0.2718559841247942
2.4224629593412085E-4     -0.2715715856306747
2.426741011494237E-4      -0.2712910826048623
2.431019063647265E-4      -0.2710145030994723
2.4352971158002933E-4     -0.27074174313766425
2.439575167953321E-4      -0.27047274063826127
2.443853220106349E-4      -0.27020751739344506
2.448131272259377E-4      -0.26994609519541746
2.452409324412405E-4      -0.26968849583636695
2.456687376565433E-4      -0.26943474110847654
2.460965428718461E-4      -0.2691848528039391
2.46524348087149E-4       -0.2689387142673836
2.469521533024517E-4      -0.2686962912103384
2.473799585177545E-4      -0.26845759440670286
2.478077637330573E-4      -0.2682226346304123
2.482355689483602E-4      -0.26799142265537895
2.48663374163663E-4       -0.2677639692555295
2.490911793789658E-4      -0.2675402852047877
2.495189845942686E-4      -0.267320333927488
2.499467898095714E-4      -0.26710399203938384
2.503745950248742E-4      -0.2668912756057467
2.50802400240177E-4       -0.2666822006918679
2.5123020545547985E-4     -0.26647678336299785
2.5165801067078265E-4     -0.2662750396844377
2.5208581588608545E-4     -0.2660769857214475
2.5251362110138826E-4     -0.26588252750700486
2.5294142631669106E-4     -0.2656915760352656
2.533692315319938E-4      -0.2655041431573429
2.5379703674729666E-4     -0.2653202407243319
2.5422484196259946E-4     -0.2651398805873512
2.5465264717790227E-4     -0.2649630745975074
2.5508045239320507E-4     -0.2647898346059097
2.5550825760850787E-4     -0.26462004959460467
2.559360628238107E-4      -0.26445364815636674
2.563638680391135E-4      -0.26429063637014016
2.5679167325441633E-4     -0.264131020314867
2.5721947846971913E-4     -0.2639748060694883
2.57647283685022E-4       -0.26382199971294734
2.580750889003248E-4      -0.2636726073241819
2.5850289411562765E-4     -0.26352650599588917
2.589306993309304E-4      -0.26338364962773075
2.593585045462332E-4      -0.2632440343198606
2.59786309761536E-4       -0.2631076561724509
2.602141149768388E-4      -0.26297451128566035
2.606419201921416E-4      -0.26284459575965413
2.610697254074444E-4      -0.26271790569459735
2.6149753062274726E-4     -0.2625943834534422
2.6192533583805006E-4     -0.2624739128731228
2.6235314105335286E-4     -0.26235649329470245
2.6278094626865567E-4     -0.2622421240592371
2.632087514839585E-4      -0.2621308045077791
2.636365566992613E-4      -0.2620225339813914
2.640643619145641E-4      -0.2619173118211309
2.644921671298669E-4      -0.26181503406207424
2.6491997234516973E-4     -0.2617156158990567
2.6534777756047253E-4     -0.26161905190289236
2.6577558277577533E-4     -0.26152533664439465
2.6620338799107813E-4     -0.2614344646943659
2.6663119320638094E-4     -0.26134643062362206
2.6705899842168374E-4     -0.2612612290029712
2.6748680363698654E-4     -0.2611787492791326
2.6791460885228934E-4     -0.2610989162601256
2.6834241406759214E-4     -0.2610217194697711
2.6877021928289495E-4     -0.26094714843189426
2.6919802449819775E-4     -0.26087519267031395
2.6962582971350055E-4     -0.2608058417088549
2.7005363492880335E-4     -0.26073908507134164
2.7048144014410615E-4     -0.260674808797109
2.7090924535940896E-4     -0.2606129494636254