% Model:              PLacek_MembTVNJ_ArticleDims_Rh100um_hg10um_To2MHz_PHedit.mph
% Version:            COMSOL 6.3.0.420
% Date:               Aug 12 2025, 09:40
% Dimension:          1
% Nodes:              1801
% Expressions:        1
% Description:        Line graph
% Arc length (m)          real(p)
0                         NaN
1.6835192320072636E-7     0.03311971668489507
3.367038464014527E-7      0.03312291548659337
5.050557696021791E-7      0.033123087460335335
6.734076928029054E-7      0.033120232605993394
8.417596160036319E-7      0.03311435092361208
1.0101115392043582E-6     0.03310496255539117
1.1801802473622774E-6     0.033112789133110686
1.3502489555201964E-6     0.033118070755801775
1.5203176636781154E-6     0.033120327565657706
1.6903863718360344E-6     0.03311955956269454
1.8604550799939534E-6     0.033115766746857185
2.0305237881518723E-6     0.03311094692836024
2.200592664946635E-6      0.033115381384066674
2.370661541741397E-6      0.033117080599563455
2.5407304185361593E-6     0.03311804238496089
2.710799295330922E-6      0.03311826674038176
2.880868172125684E-6      0.03311775366573136
3.0509370489204466E-6     0.03311756777045949
3.2210059257152087E-6     0.03311717838792665
3.3910748025099717E-6     0.03311588797658159
3.5611436793047335E-6     0.03311476114587353
3.731212556099496E-6      0.03311379789579331
3.901281432894258E-6      0.03311299822636817
4.07135030968902E-6       0.03311277895299844
4.2414191864837825E-6     0.0331102884384949
4.411488063278545E-6      0.03310801734093049
4.581556940073307E-6      0.03310638247578725
4.751625816868069E-6      0.03310538384297735
4.921694693662831E-6      0.03310502144260163
5.091763570457593E-6      0.03310538889776311
5.261832447252356E-6      0.03310121807064678
5.4319013240471185E-6     0.03309794429912066
5.601970200841881E-6      0.03309566120639512
5.772039077636643E-6      0.03309436879242462
5.942107954431407E-6      0.03309406705726121
6.112176831226169E-6      0.03309493874959635
6.282245708020931E-6      0.03308985890011963
6.452314584815693E-6      0.03308582002783217
6.622383461610455E-6      0.033083004881431934
6.7924523384052175E-6     0.03308141346104905
6.96252121519998E-6       0.03308104576654364
7.132590091994742E-6      0.03308196913927633
7.302658968789505E-6      0.033075981147218735
7.472727845584267E-6      0.03307132138223491
7.642796722379028E-6      0.03306805718561068
7.812865599173792E-6      0.03306618855734277
7.982934475968554E-6      0.03306571549738891
8.153003352763316E-6      0.033066543239800614
8.323072229558079E-6      0.033059742388616906
8.493141106352842E-6      0.03305456512810436
8.663209983147605E-6      0.03305091669226572
8.833278859942367E-6      0.033048797081126985
9.003347736737129E-6      0.03304820629465889
9.173416613531891E-6      0.033048944832155654
9.343485490326653E-6      0.033041466480583224
9.513554367121415E-6      0.033035817162815916
9.683623243916178E-6      0.033031797378190224
9.853692120710938E-6      0.03302940712668013
1.00237609975057E-5       0.03302864640826286
1.0193829874300462E-5     0.03302926669566185
1.0363898751095225E-5     0.03302123861456761
1.0533967627889988E-5     0.033015155181028356
1.070403650468475E-5      0.03301076786775126
1.0874105381479513E-5     0.0330080766747656
1.1044174258274277E-5     0.033007081602016076
1.1214243135069039E-5     0.033007505478022746
1.1384312011863803E-5     0.032999022260708354
1.1554380888658565E-5     0.032992548105262615
1.1724449765453327E-5     0.03298780584020884
1.1894518642248089E-5     0.03298479546550801
1.2064587519042851E-5     0.03298351698117311
1.2234656395837613E-5     0.03298366355429942
1.2404725272632376E-5     0.03297479790907996
1.257479414942714E-5      0.032967979419844626
1.27448630262219E-5       0.032962901253753736
1.2914931903016664E-5     0.03295956341072595
1.3085000779811424E-5     0.03295796589081333
1.3255069656606186E-5     0.0329577756016905
1.3425138533400948E-5     0.03294859821556033
1.3595207410195712E-5     0.03294147726694358
1.3765276286990473E-5     0.03293607966361247
1.3935345163785237E-5     0.03293240540547267
1.4105414040579997E-5     0.032930454492572966
1.427548291737476E-5      0.03292987494552166
1.4445551794169521E-5     0.032920460585642145
1.4615620670964285E-5     0.032913078765247954
1.4785689547759046E-5     0.03290737750502219
1.495575842455381E-5      0.032903356804922575
1.5125827301348572E-5     0.03290101666494585
1.5295896178143334E-5     0.03289998834745099
1.5465965054938098E-5     0.03289040493449112
1.5636033931732858E-5     0.03288280377144376
1.580610280852762E-5      0.0328768161206321
1.5976171685322383E-5     0.032872441982108175
1.6146240562117146E-5     0.032869681355780916
1.6316309438911907E-5     0.0328681449123184
1.648637831570667E-5      0.0328584424676494
1.665644719250143E-5      0.03285065725960958
1.6826516069296195E-5     0.032844399958880034
1.6996584946090956E-5     0.03283967056531766
1.716665382288572E-5      0.03283646907898749
1.733672269968048E-5      0.03283439222824382
1.7506791576475244E-5     0.03282461036340727
1.7676860453270008E-5     0.03281666199349999
1.7846929330064768E-5     0.032810143846915316
1.8016998206859532E-5     0.03280505592365323
1.8187067083654292E-5     0.03280139822370073
1.8357135960449056E-5     0.03279870643402703
1.852720483724382E-5      0.032788824159405025
1.8697273714038584E-5     0.03278073652573809
1.8867342590833344E-5     0.03277397922000194
1.9037411467628108E-5     0.032768552242209585
1.9207480344422872E-5     0.032764455592361026
1.9377549221217633E-5     0.032761186116719784
1.9547618098012396E-5     0.032751202406431146
1.9717686974807157E-5     0.032742962940898526
1.9887755851601917E-5     0.03273596456644396
2.005782472839668E-5      0.03273020728306746
2.0227893605191438E-5     0.03272569109075276
2.0397962481986202E-5     0.032721881137963704
2.0568031358780966E-5     0.032711780550430426
2.073810023557573E-5      0.03270337800784216
2.090816911237049E-5      0.032696138658666024
2.1078237989165254E-5     0.03269006250289226
2.1248306865960018E-5     0.03268514954049809
2.141837574275478E-5      0.03268084376516499
2.1588444619549542E-5     0.03267061515386126
2.1758513496344303E-5     0.03266203846857114
2.1928582373139063E-5     0.032654557702992366
2.2098651249933827E-5     0.03264817285700784
2.2268720126728584E-5     0.032642883930702145
2.2438789003523348E-5     0.03263812360858388
2.2608857880318112E-5     0.032627760168379205
2.2778926757112876E-5     0.03261900085676588
2.2948995633907636E-5     0.03261127835827857
2.3119064510702397E-5     0.03260459267289449
2.3289133387497164E-5     0.032598943800633176
2.3459202264291924E-5     0.032593746452774824
2.3629271141086688E-5     0.03258323155696014
2.379934001788145E-5      0.03257428604096399
2.396940889467621E-5      0.03256632461609911
2.4139477771470973E-5     0.0325593472823102
2.4309546648265737E-5     0.03255335403960704
2.4479615525060497E-5     0.03254774322054654
2.464968440185526E-5      0.032537076397833424
2.481975327865002E-5      0.03252794569655581
2.4989822155444785E-5     0.032519749449286935
2.515989103223955E-5      0.03251248765605606
2.532995990903431E-5      0.03250616031684692
2.5500028785829074E-5     0.03250014452519635
2.5670097662623834E-5     0.032489328096168356
2.5840166539418598E-5     0.03248001961938341
2.6010235416213362E-5     0.03247159618840112
2.6180304293008122E-5     0.032464057803211724
2.6350373169802883E-5     0.032457404463792444
2.6520442046597647E-5     0.03245098146115039
2.669051092339241E-5      0.03244001460632257
2.686057980018717E-5      0.032430538277130314
2.703064867698193E-5      0.03242189776450589
2.7200717553776692E-5     0.03241409306849811
2.7370786430571456E-5     0.03240712418905817
2.7540855307366216E-5     0.0324003103666277
2.771092418416098E-5      0.032389207541785425
2.7880993060955744E-5     0.0323795717521261
2.8051061937750504E-5     0.03237072223803605
2.8221130814545265E-5     0.0323626589994795
2.839119969134003E-5      0.032355382036495475
2.8561268568134793E-5     0.03234817755291513
2.8731337444929556E-5     0.0323369425215473
2.890140632172432E-5      0.03232715810134649
2.907147519851908E-5      0.03231811049611783
2.9241544075313845E-5     0.03230979970585482
2.9411612952108605E-5     0.03230222573057046
2.958168182890337E-5      0.03229464367942203
2.975175070569813E-5      0.03228328811891307
2.9921819582492897E-5     0.03227336524617458
3.0091888459287654E-5     0.03226413017038337
3.0261957336082418E-5     0.03225558289157846
3.0432026212877178E-5     0.032247723409727334
3.060209508967194E-5      0.03223979632648605
3.07721639664667E-5       0.032228351903042074
3.0942232843261466E-5     0.032218299094445534
3.111230172005623E-5      0.03220888250246958
3.1282370596850994E-5     0.03220010212702314
3.145243947364575E-5      0.03219195796818754
3.1622508350440515E-5     0.03218363146203672
3.179257722723528E-5      0.03217206962221422
3.196264610403004E-5      0.03216190865263166
3.21327149808248E-5       0.03215232998947034
3.2302783857619563E-5     0.03214333363275301
3.247285273441433E-5      0.0321349195824553
3.264292161120909E-5      0.03212623392112957
3.2812990488003855E-5     0.03211459250532489
3.298305936479862E-5      0.03210433268837301
3.315312824159338E-5      0.03209460055291575
3.332319711838814E-5      0.03208539609887505
3.3493265995182904E-5     0.0320767193263241
3.366333487197767E-5      0.03206766879591345
3.383340374877243E-5      0.03205595337355331
3.400347262556719E-5      0.03204561077229024
3.417354150236195E-5      0.0320357395528252
3.434361037915671E-5      0.03202633971525578
3.4513679255951466E-5     0.0320174112594551
3.468374813274623E-5      0.03200801599659695
3.4853817009540994E-5     0.03199625241910381
3.502388588633576E-5      0.031985840671430184
3.519395476313052E-5      0.03197584256465552
3.5364023639925286E-5     0.03196625809879282
3.553409251672005E-5      0.031957087273825825
3.5704161393514813E-5     0.03194734489322206
3.587423027030958E-5      0.031935543600947046
3.604429914710434E-5      0.03192508114399496
3.6214368023899105E-5     0.03191497232586259
3.638443690069387E-5      0.03190521714655643
3.655450577748863E-5      0.03189581560611716
3.672457465428339E-5      0.031885736984936255
3.6894643531078154E-5     0.03187392110382971
3.706471240787292E-5      0.03186342694767613
3.7234781284667675E-5     0.03185322379693046
3.740485016146244E-5      0.0318433116515992
3.7574919038257195E-5     0.03183369051164982
3.774498791505196E-5      0.031823294935250226
3.791505679184672E-5      0.03181149965140363
3.808512566864148E-5      0.031800994374311574
3.8255194545436244E-5     0.03179071366208991
3.842526342223101E-5      0.03178065751472887
3.8595332299025765E-5     0.031770825932218714
3.876540117582053E-5      0.031760115128538796
3.893547005261529E-5      0.0317483671471162
3.910553892941006E-5      0.03173787528327233
3.927560780620482E-5      0.03172753575095403
3.9445676682999584E-5     0.03171734855018082
3.961574555979435E-5      0.03170731368098032
3.978581443658911E-5      0.03169627446739834
3.995588331338387E-5      0.0316845909417342
4.012595219017863E-5      0.03167413829852704
4.02960210669734E-5       0.03166375986198687
4.0466089943768154E-5     0.03165345563203563
4.063615882056292E-5      0.03164322560873024
4.0806227697357675E-5     0.031631843509310864
4.097629657415244E-5      0.03162024217003476
4.11463654509472E-5       0.03160985688636798
4.1316434327741966E-5     0.0315994613755328
4.148650320453673E-5      0.031589055637571514
4.165657208133149E-5      0.031578639672446715
4.182664095812625E-5      0.031566906748407134
4.1996709834921015E-5     0.031555412491507374
4.216677871171578E-5      0.03154512414174976
4.233684758851054E-5      0.03153473496738466
4.2506916465305307E-5     0.03152424496849338
4.267698534210007E-5      0.03151365414498324
4.2847054218894834E-5     0.0315015766939304
4.30171230956896E-5       0.031490224190135606
4.3187191972484355E-5     0.031480061197324744
4.335726084927912E-5      0.03146970191251381
4.3527329726073876E-5     0.03145914633572232
4.369739860286864E-5      0.031448394466934
4.38674674796634E-5       0.031435989975911474
4.403753635645816E-5      0.03142481936810396
4.4207605233252925E-5     0.03141480820682377
4.437767411004769E-5      0.031404500161814015
4.454774298684245E-5      0.03139389523309095
4.471781186363721E-5      0.03138299342061229
4.4887880740431973E-5     0.03137025463000753
4.505794961722674E-5      0.03135929211120596
4.52280184940215E-5       0.0313494660598016
4.539808737081626E-5      0.031339236381355655
4.556815624761102E-5      0.03132860307591365
4.5738225124405786E-5     0.03131756614343818
4.590829400120055E-5      0.03130449586511624
4.6078362877995314E-5     0.031293763415559485
4.624843175479008E-5      0.03128415869708892
4.641850063158484E-5      0.031274051990909414
4.65885695083796E-5       0.03126344329705024
4.675863838517436E-5      0.03125233261544797
4.6928707261969126E-5     0.031239203247476383
4.709877613876389E-5      0.03122891565083023
4.7268845015558654E-5     0.031219530065705613
4.743891389235341E-5      0.031209529793458424
4.7608982769148175E-5     0.031198914834036622
4.777905164594294E-5      0.031187685187440202
4.79491205227377E-5       0.03117404765265381
4.8119189399532466E-5     0.031163929425928095
4.828925827632723E-5      0.031154857178149687
4.845932715312199E-5      0.031145037708270693
4.8629396029916744E-5     0.031134471016268345
4.8799464906711515E-5     0.031123157102121504
4.896953378350627E-5      0.031109224877347033
4.9139602660301036E-5     0.03109949448139318
4.93096715370958E-5       0.03109075640264791
4.947974041389056E-5      0.03108113955260696
4.9649809290685314E-5     0.03107064393120853
4.981987816748008E-5      0.031059269538450996
4.998994704427484E-5      0.031045039822818442
5.0160015921069605E-5     0.031035707434788107
5.033008479786437E-5      0.03102733861547204
5.050015367465913E-5      0.03101795681340148
5.067022255145389E-5      0.0310075620284691
5.0840291428248654E-5     0.0309961542607432
5.101036030504342E-5      0.030981665160814367
5.1180429181838175E-5     0.030972783601604607
5.135049805863294E-5      0.03096482084100562
5.15205669354277E-5       0.03095570852966329
5.169063581222245E-5      0.03094544666756136
5.1860704689017224E-5     0.03093403525475675
5.203077356581198E-5      0.030919301324004167
5.2200842442606745E-5     0.030910899921416355
5.237091131940151E-5      0.030903382476868902
5.254098019619627E-5      0.030894576023254742
5.2711049072991036E-5     0.030884480560469798
5.28811179497858E-5       0.030873096088610007
5.3051186826580564E-5     0.03085812921598769
5.322125570337533E-5      0.030850238781959496
5.339132458017009E-5      0.030843209834512428
5.3561393456964855E-5     0.030834748982051487
5.373146233375962E-5      0.030824856224573424
5.390153121055438E-5      0.030813531562063602
5.407160008734914E-5      0.0307983533348453
5.4241668964143904E-5     0.03079101305250102
5.441173784093867E-5      0.030784516997242245
5.4581806717733425E-5     0.030776443509358115
5.475187559452819E-5      0.030766792588920174
5.492194447132294E-5      0.030755564235850366
5.50920133481177E-5       0.030740196115718113
5.526208222491247E-5      0.030733438757143704
5.543215110170724E-5      0.030727520448073878
5.5602219978501995E-5     0.03071987885397397
5.577228885529676E-5      0.03071051397484399
5.594235773209153E-5      0.030699425810721322
5.611242660888629E-5      0.030683900000854296
5.628249548568105E-5      0.03067776228157815
5.6452564362475814E-5     0.030672469470786386
5.662263323927058E-5      0.030665307207901348
5.679270211606533E-5      0.030656275492835203
5.69627709928601E-5       0.030645374325661133
5.7132839869654856E-5     0.030629739739237216
5.730290874644962E-5      0.030624289414731377
5.747297762324438E-5      0.030619680466925592
5.764304650003915E-5      0.030613048928690947
5.781311537683391E-5      0.03060439480007786
5.7983184253628675E-5     0.03059371808106356
5.815325313042344E-5      0.030578016383018596
5.83233220072182E-5       0.030573353219515986
5.8493390884012966E-5     0.030569501675089778
5.866345976080773E-5      0.030563459361069856
5.8833528637602494E-5     0.030555226277535902
5.900359751439725E-5      0.03054480242442317
5.9173666391192015E-5     0.030529035655568738
5.934373526798678E-5      0.030525265512200167
5.951380414478154E-5      0.030522261503775083
5.96838730215763E-5       0.0305168714841091
5.9853941898371064E-5     0.030509095453205466
6.0024010775165814E-5     0.030498933411084
6.019407965196058E-5      0.0304830256335133
6.036414852875534E-5      0.03048024381198096
6.0534217405550106E-5     0.030478194234970803
6.070428628234486E-5      0.030473517178264936
6.087435515913962E-5      0.030466212641901566
6.104442403593438E-5      0.03045628062582379
6.121449291272915E-5      0.03044007346120228
6.138456178952391E-5      0.030438367681302037
6.155463066631868E-5      0.030437398838340537
6.172469954311344E-5      0.030433519263433993
6.18947684199082E-5       0.030426728956578324
6.206483729670297E-5      0.030417027917773544
6.223490617349773E-5      0.03040044663519695
6.24049750502925E-5       0.030399922694049612
6.257504392708726E-5      0.030400154603058966
6.274511280388202E-5      0.030397172850324252
6.291518168067679E-5      0.03039097743592029
6.308525055747155E-5      0.030381568359788527
6.325531943426631E-5      0.030364700801794937
6.342538831106108E-5      0.030365475860701815
6.359545718785583E-5      0.030366984295509693
6.376552606465059E-5      0.030364981286065015
6.393559494144536E-5      0.030359466832416578
6.41056638182401E-5       0.030350440934479812
6.427573269503487E-5      0.030333409700784554
6.444580157182963E-5      0.03033555693380532
6.461587044862441E-5      0.03033840103145659
6.478593932541916E-5      0.03033744810216086
6.495600820221393E-5      0.03033269814584983
6.512607707900869E-5      0.030324151162616202
6.529614595580345E-5      0.03030704077048011
6.546621483259822E-5      0.0303106036820005
6.5636283709393E-5        0.030314857367532658
6.580635258618774E-5      0.030315035445160142
6.597642146298251E-5      0.030311137914860186
6.614649033977727E-5      0.030303164776634424
6.631655921657204E-5      0.03028604938003747
6.64866280933668E-5       0.03029108443110502
6.665669697016156E-5      0.03029683550004472
6.682676584695633E-5      0.03029823593642907
6.699683472375108E-5      0.030295285740254835
6.716690360054584E-5      0.03028798491155453
6.73369724773406E-5       0.030270934544006506
6.750704135413537E-5      0.03027750464559529
6.767711023093013E-5      0.030284849334743156
6.784717910772488E-5      0.03028756970518699
6.801724798451965E-5      0.030285665756965837
6.818731686131441E-5      0.030279137490024397
6.835738573810918E-5      0.030262213915611087
6.852745461490394E-5      0.030270391307291183
6.86975234916987E-5       0.030279440509080564
6.886759236849347E-5      0.03028359053215608
6.903766124528822E-5      0.030282841376560017
6.920773012208298E-5      0.030277193042259853
6.937779899887774E-5      0.030260461505416295
6.954786787567251E-5      0.0302703370655627
6.971793675246727E-5      0.03028121812042978
6.988800562926202E-5      0.030286920646191266
7.005807450605679E-5      0.030287444642821133
7.022814338285155E-5      0.030282790110356783
7.039821225964631E-5      0.03026631103384362
7.056828113644108E-5      0.0302779977784344
7.073835001323584E-5      0.030290858466099666
7.09084188900306E-5       0.030298247081948216
7.107848776682537E-5      0.030300163626012594
7.124855664362013E-5      0.030296608098257006
7.14186255204149E-5       0.03028040522934718
7.158869439720966E-5      0.030294051007044943
7.175876327400443E-5      0.030309073418342325
7.192883215079919E-5      0.03031829719388225
7.209890102759395E-5      0.030321722333677747
7.226896990438872E-5      0.030319348837707656
7.243903878118348E-5      0.030303391887572653
7.260910765797824E-5      0.030319186152052913
7.277917653477301E-5      0.0303365947644585
7.294924541156777E-5      0.030347832906368947
7.311931428836252E-5      0.030352900577761483
7.32893831651573E-5       0.030351797778653995
7.345945204195205E-5      0.030336060276945437
7.362952091874681E-5      0.03035423015610894
7.379958979554158E-5      0.03037427680607188
7.396965867233633E-5      0.030387735994728337
7.413972754913108E-5      0.03039460772211407
7.430979642592586E-5      0.030394891988225033
7.44798653027206E-5       0.030379387663233802
7.464993417951538E-5      0.03040017753934338
7.482000305631013E-5      0.03042312662995632
7.499007193310491E-5      0.03043903380526311
7.516014080989968E-5      0.03044789906531009
7.533020968669444E-5      0.030449722410061383
7.55002785634892E-5       0.03043452653298779
7.567034744028397E-5      0.030458186207307822
7.584041631707873E-5      0.0304842950024945
7.601048519387348E-5      0.03050287561201058
7.618055407066824E-5      0.03051392803588209
7.6350622947463E-5        0.030517452274085963
7.652069182425776E-5      0.030502629744127506
7.669076070105252E-5      0.030529379748436634
7.686082957784729E-5      0.030558912166296193
7.703089845464205E-5      0.03058040841522154
7.72009673314368E-5       0.030593868495204544
7.737103620823156E-5      0.030599292406267877
7.754110508502633E-5      0.030584971965024306
7.771117396182109E-5      0.03061501628725146
7.788124283861586E-5      0.030648233630906612
7.805131171541062E-5      0.03067291581259207
7.822138059220538E-5      0.0306890628323314
7.839144946900015E-5      0.03069667469011232
7.856151834579491E-5      0.030683146302827476
7.873158722258968E-5      0.030716618532499552
7.890165609938444E-5      0.030753722810773626
7.907172497617919E-5      0.030781854054500988
7.924179385297395E-5      0.030801012263756446
7.941186272976872E-5      0.0308111974384847
7.958193160656348E-5      0.03079890043630167
7.975200048335824E-5      0.030835788669439857
7.992206936015301E-5      0.03087688782247132
8.009213823694777E-5      0.030908688752976192
8.026220711374252E-5      0.03093119146100001
8.04322759905373E-5       0.030944395946542774
8.060234486733205E-5      0.03093384984551252
8.077241374412683E-5      0.03097399009923088
8.094248262092158E-5      0.031019111651434523
8.111255149771634E-5      0.031054762138034743
8.12826203745111E-5       0.031080941559025035
8.145268925130588E-5      0.031097649914431418
8.162275812810063E-5      0.031089412277580473
8.179282700489541E-5      0.031132498640063587
8.196289588169016E-5      0.031181598150185712
8.213296475848491E-5      0.031221235881221387
8.230303363527969E-5      0.031251411833170616
8.247310251207444E-5      0.031272126006083804
8.26431713888692E-5       0.03126679127858446
8.281324026566398E-5      0.031312314426796245
8.298330914245874E-5      0.03136521098367951
8.31533780192535E-5       0.031408893827852884
8.332344689604827E-5      0.031443362959358664
8.349351577284304E-5      0.03146861837821311
8.36635846496378E-5       0.031466872335720375
8.383365352643258E-5      0.031513967085957134
8.400372240322733E-5      0.031570245271313406
8.417379128002208E-5      0.03161791914314543
8.434386015681686E-5      0.03165698870146294
8.45139290336116E-5       0.03168745394629523
8.468399791040637E-5      0.0316902473905189
8.485406678720113E-5      0.03173753253693325
8.50241356639959E-5       0.0317963676617227
8.519420454079065E-5      0.031847685277754154
8.536427341758541E-5      0.03189148538507638
8.553434229438016E-5      0.03192776798367311
8.570441117117493E-5      0.03193593931589979
8.587448004796969E-5      0.03198138648754914
8.604454892476445E-5      0.03204159630372688
8.621461780155922E-5      0.03209597500684701
8.638468667835397E-5      0.03214452259693879
8.655475555514873E-5      0.03218723907396319
8.67248244319435E-5       0.03220181191307682
8.689489330873826E-5      0.03224279104557923
8.706496218553302E-5      0.032302628136108125
8.723503106232779E-5      0.032359010659914436
8.740509993912255E-5      0.03241193861692661
8.757516881591731E-5      0.03246141200718368
8.774523769271208E-5      0.03248280643259678
8.791530656950684E-5      0.03251591287492761
8.80853754463016E-5       0.03257319743196093
8.825544432309636E-5      0.03263003570566966
8.842551319989112E-5      0.032686427696024555
8.859558207668588E-5      0.032742373403007695
8.876565095348065E-5      0.03277007429818691
8.893571983027541E-5      0.03279140629710352
8.910578870707019E-5      0.03284355869499002
8.927585758386494E-5      0.03289873296339958
8.94459264606597E-5       0.03295692910232246
8.961599533745447E-5      0.033018147111786404
8.978606421424923E-5      0.0330503437264381
8.9956133091044E-5        0.033055617447323285
9.012620196783876E-5      0.03309963714754066
9.029627084463352E-5      0.03315035956171855
9.046633972142827E-5      0.03320778468986955
9.063640859822305E-5      0.033271912532001985
9.08064774750178E-5       0.03330534968113223
9.097654635181258E-5      0.033290081898510106
9.114661522860733E-5      0.03332249522848723
9.131668410540209E-5      0.033365196264100505
9.148675298219686E-5      0.03341818500534788
9.165682185899162E-5      0.03348146145222102
9.182689073578638E-5      0.03351139940402258
9.199695961258116E-5      0.03347124270111138
9.216702848937591E-5      0.033488104019804135
9.233709736617066E-5      0.03351835715925691
9.250716624296544E-5      0.03356200211954736
9.267723511976019E-5      0.033619038900634834
9.284730399655495E-5      0.033639221766498126
9.301737287334972E-5      0.03357045975914052
9.31874417501445E-5       0.033567491757779275
9.335751062693924E-5      0.03358007202636027
9.3527579503734E-5        0.03360820056485381
9.369764838052876E-5      0.03365187737329415
9.386771725732352E-5      0.03365466378882892
9.403778613411829E-5      0.033554944064174065
9.420785501091305E-5      0.03352791408156028
9.43779238877078E-5       0.03351713517810988
9.454799276450256E-5      0.033522607353820434
9.471806164129733E-5      0.03354433060872416
9.488813051809209E-5      0.0335213377750909
9.505819939488686E-5      0.03339060378113335
9.522826827168162E-5      0.033335934009451604
9.539833714847638E-5      0.03329636129235686
9.556840602527113E-5      0.03327188562986417
9.57384749020659E-5       0.03326250702195746
9.590854377886066E-5      0.03320603165378062
9.607861265565543E-5      0.03304732536887321
9.62486815324502E-5       0.032962828403648566
9.641875040924495E-5      0.032890346943199124
9.658881928603972E-5      0.03282988098757774
9.675888816283448E-5      0.03278143053673512
9.692895703962925E-5      0.03268649481436872
9.709902591642401E-5      0.032506109862692235
9.726909479321879E-5      0.03239170180113038
9.743916367001354E-5      0.03228476985335551
9.76092325468083E-5       0.032185314019381045
9.777930142360306E-5      0.03209333429919803
9.794937030039783E-5      0.03195975995647042
9.811943917719258E-5      0.03176633967128972
9.828950805398736E-5      0.031624489942476575
9.84595769307821E-5       0.03148514003367135
9.862964580757686E-5      0.03134828994489681
9.879971468437162E-5      0.0312139396761313
9.896978356116637E-5      0.03104747699478385
9.913985243796113E-5      0.03085016792552416
9.930992131475591E-5      0.030685799852268148
9.947999019155066E-5      0.030519760542367744
9.965005906834544E-5      0.030352049995863106
9.982012794514019E-5      0.03018266821272542
9.999019682193495E-5      0.029994176900982217
1.0016026569872972E-4     0.029800456214029495
1.003303345755245E-4      0.029620103757847252
1.0050040345231925E-4     0.029435681240354443
1.0067047232911402E-4     0.029247188661607873
1.0084054120590877E-4     0.029054626021582236
1.0101061008270354E-4     0.028857304147167043
1.011806789594983E-4      0.028671331827916438
1.0135074783629308E-4     0.028481714962535674
1.0152081671308783E-4     0.0282877643778331
1.016908855898826E-4      0.028089480073878334
1.0186095446667736E-4     0.02788686205063522
1.0203102334347212E-4     0.027692905796955956
1.0220109222026688E-4     0.027515054457061507
1.0237116109706166E-4     0.027321532115444774
1.0254122997385641E-4     0.02712533426090864
1.0271129885065116E-4     0.026926460893499992
1.0288136772744593E-4     0.026724912013186296
1.0305143660424069E-4     0.026543136769560417
1.0322150548103545E-4     0.02637072837215423
1.0339157435783022E-4     0.02617626484630795
1.0356164323462497E-4     0.025982195341578692
1.0373171211141973E-4     0.02578851985799028
1.0390178098821448E-4     0.025595238395513257
1.0407184986500925E-4     0.02543023989267107
1.0424191874180401E-4     0.025258914979372698
1.0441198761859879E-4     0.025064012779064275
1.0458205649539355E-4     0.024873422230249288
1.047521253721883E-4      0.024687143332867065
1.0492219424898308E-4     0.02450517608698307
1.0509226312577784E-4     0.02435775739235799
1.052623320025726E-4      0.0241828746300957
1.0543240087936737E-4     0.02398633099422079
1.0560246975616213E-4     0.023798363384477175
1.0577253863295688E-4     0.023618971800928295
1.0594260750975165E-4     0.023448156243514203
1.0611267638654641E-4     0.02331647826485307
1.0628274526334116E-4     0.023134200702043955
1.0645281414013594E-4     0.022934142119294648
1.0662288301693069E-4     0.02274686406920893
1.0679295189372544E-4     0.022572366551734762
1.0696302077052022E-4     0.02241064956691443
1.0713308964731497E-4     0.02229149224202715
1.0730315852410975E-4     0.022099335168734916
1.074732274009045E-4      0.021894025502446537
1.0764329627769927E-4     0.02170534237043798
1.0781336515449402E-4     0.021533285772728773
1.0798343403128879E-4     0.02137785570927662
1.0815350290808356E-4     0.02126754414083986
1.0832357178487833E-4     0.02106439344139523
1.0849364066167309E-4     0.020852660426063784
1.0866370953846784E-4     0.02066083705554896