% Model:              ModelMicPlate_Rh20um_hg5um_Refined_MaterialDefPolySilicon.mph
% Version:            COMSOL 6.3.0.335
% Date:               May 21 2025, 13:46
% Dimension:          1
% Nodes:              708
% Expressions:        1
% Description:        Line graph
% Arc length (m)          real(p)
0                         -0.004401219393590171
4.0816326530612243E-7     -0.0043564517989621515
8.163265306122445E-7      -0.004323201960119346
1.224489795918367E-6      -0.004301469877061751
1.632653061224489E-6      -0.0042912555497893684
2.0408163265306117E-6     -0.004292558978302201
2.448979591836734E-6      -0.004305380162600244
2.857142857142856E-6      -0.004329719102683501
3.265306122448978E-6      -0.004305705626206377
3.6734693877551007E-6     -0.004284010650377475
4.0816326530612225E-6     -0.004264634175196794
4.489795918367345E-6      -0.004247576200664335
4.897959183673468E-6      -0.0042328367267801
5.30612244897959E-6       -0.004220415753544085
5.714285714285712E-6      -0.004210313280956291
6.1224489795918346E-6     -0.004180989044223388
6.530612244897958E-6      -0.004147576931260456
6.9387755102040806E-6     -0.004110076942067492
7.3469387755102015E-6     -0.004068489076644498
7.755102040816326E-6      -0.004022813334991475
8.163265306122448E-6      -0.003973049717108419
8.571428571428571E-6      -0.003919198222995333
8.979591836734694E-6      -0.0038137140110838857
9.387755102040816E-6      -0.0036829295040675222
9.795918367346939E-6      -0.0035268447019462393
1.020408163265306E-5      -0.0033454596047200404
1.0612244897959184E-5     -0.0031387742123889237
1.1020408163265308E-5     -0.0029067885249528893
1.1428571428571429E-5     -0.0026495025424119376
1.1836734693877552E-5     -0.0025162367873873457
1.2244897959183674E-5     -0.002258940394041134
1.2653061224489795E-5     -0.0018776133623733021
1.3061224489795918E-5     -0.0013722556923838505
1.346938775510204E-5      -7.428673840727796E-4
1.3877551020408165E-5     1.055156255991166E-5
1.4285714285714285E-5     8.880011475142226E-4
1.4693877551020408E-5     0.0018880094723532298
1.510204081632653E-5      0.0032204802911998745
1.5510204081632655E-5     0.004885413604054148
1.5918367346938776E-5     0.006882809410916059
1.63265306122449E-5       0.009212667711785603
1.6734693877551024E-5     0.01187498850666278
1.7142857142857145E-5     0.014869771795547592
1.755102040816327E-5      0.018544939153429127
1.795918367346939E-5      0.02286595523526564
1.8367346938775515E-5     0.0278328200410571
1.8775510204081636E-5     0.03344553357080353
1.9183673469387756E-5     0.039704095824504924
1.959183673469388E-5      0.046608506802161276
2.0E-5                    0.0541587665037726
2.042553191489362E-5      0.06236489219493559
2.0851063829787234E-5     0.0703154767942578
2.1276595744680852E-5     0.07801052030173922
2.1702127659574467E-5     0.08545002271737988
2.212765957446808E-5      0.09263398404117973
2.2553191489361703E-5     0.09956240427313881
2.2978723404255317E-5     0.10623528341325711
2.3404255319148935E-5     0.11270380386733798
2.382978723404255E-5      0.11904181134444736
2.4255319148936165E-5     0.12524930584458513
2.4680851063829783E-5     0.13132628736775134
2.51063829787234E-5       0.13727275591394605
2.5531914893617015E-5     0.14308871148316915
2.5957446808510633E-5     0.14877415407542072
2.638297872340425E-5      0.15428540246039663
2.6808510638297866E-5     0.1597067144452835
2.7234042553191484E-5     0.16503809003008135
2.7659574468085102E-5     0.17027952921479017
2.808510638297872E-5      0.17543103199941
2.8510638297872334E-5     0.18049259838394072
2.8936170212765952E-5     0.18546422836838247
2.936170212765957E-5      0.19039038359117053
2.9787234042553185E-5     0.1952466803345197
3.02127659574468E-5       0.20003311859842993
3.063829787234042E-5      0.20474969838290127
3.106382978723404E-5      0.20939641968793382
3.148936170212765E-5      0.21397328251352732
3.191489361702127E-5      0.21848028685968202
3.2340425531914886E-5     0.2229140555051084
3.2765957446808504E-5     0.22728802133818535
3.319148936170212E-5      0.23160218435891275
3.361702127659574E-5      0.2358565445672907
3.404255319148936E-5      0.2400511019633192
3.4468085106382976E-5     0.24418585654699815
3.4893617021276594E-5     0.24826080831832767
3.531914893617021E-5      0.2522858386532962
3.574468085106383E-5      0.25625982835763467
3.617021276595744E-5      0.2601827774313434
3.659574468085106E-5      0.2640546858744222
3.702127659574468E-5      0.2678755536868712
3.744680851063829E-5      0.27164538086869017
3.7872340425531907E-5     0.2753641674198794
3.8297872340425525E-5     0.2790379721433881
3.8723404255319136E-5     0.28266762868556067
3.914893617021275E-5      0.28625313704639693
3.957446808510637E-5      0.28979449722589695
3.999999999999998E-5      0.29329170922406095
4.04255319148936E-5       0.29674477304088853
4.085106382978722E-5      0.30015368867638004
4.127659574468084E-5      0.3035227851209806
4.1702127659574455E-5     0.30685356690669807
4.2127659574468066E-5     0.31014603403353264
4.255319148936169E-5      0.31340018650148416
4.29787234042553E-5       0.3166160243105528
4.340425531914893E-5      0.3197935474607383
4.382978723404254E-5      0.3229327559520409
4.4255319148936156E-5     0.3260360361636223
4.4680851063829774E-5     0.3291052900340203
4.5106382978723385E-5     0.33214051756323476
4.5531914893616997E-5     0.3351417187512659
4.5957446808510615E-5     0.33810889359811364
4.638297872340423E-5      0.3410420421037778
4.680851063829785E-5      0.3439411642682586
4.7234042553191475E-5     0.34680949960179847
4.765957446808508E-5      0.34964735819265463
4.8085106382978704E-5     0.3524547400408272
4.851063829787232E-5      0.3552316451463162
4.893617021276594E-5      0.3579780735091216
4.936170212765956E-5      0.3606940251292433
4.9787234042553176E-5     0.36337950000668146
5.02127659574468E-5       0.3660369497595667
5.0638297872340406E-5     0.3686671502364289
5.1063829787234024E-5     0.3712701014372679
5.148936170212764E-5      0.37384580336208384
5.191489361702126E-5      0.37639425601087684
5.234042553191487E-5      0.3789154593836467
5.276595744680849E-5      0.38140941348039337
5.319148936170211E-5      0.38387734050755734
5.3617021276595725E-5     0.3863205693816838
5.404255319148934E-5      0.3887391001027726
5.446808510638296E-5      0.39113293267082383
5.489361702127658E-5      0.39350206708583757
5.53191489361702E-5       0.39584650334781357
5.5744680851063815E-5     0.3981662414567521
5.617021276595743E-5      0.40046281935579275
5.6595744680851044E-5     0.4027367641702391
5.7021276595744655E-5     0.40498807590009106
5.744680851063827E-5      0.40721675454534856
5.7872340425531884E-5     0.40942280010601184
5.82978723404255E-5       0.41160621258208063
5.8723404255319114E-5     0.41376699197355504
5.914893617021274E-5      0.4159067740111985
5.9574468085106356E-5     0.4180258530671433
5.999999999999997E-5      0.42012422914138925
6.042553191489359E-5      0.4222019022339364
6.085106382978722E-5      0.42425887234478504
6.127659574468083E-5      0.42629513947393466
6.170212765957445E-5      0.4283107036213856
6.212765957446806E-5      0.4303064380273259
6.255319148936169E-5      0.4322831612416575
6.297872340425529E-5      0.4342408732643804
6.340425531914891E-5      0.4361795740954946
6.382978723404252E-5      0.4380992637350003
6.425531914893613E-5      0.4399999421828972
6.468085106382975E-5      0.4418816094391855
6.510638297872337E-5      0.4437449291363787
6.553191489361698E-5      0.4455905896667426
6.59574468085106E-5       0.44741859103027676
6.638297872340422E-5      0.44922893322698143
6.680851063829784E-5      0.4510216162568567
6.723404255319147E-5      0.45279664011990234
6.765957446808508E-5      0.4545540048161185
6.80851063829787E-5       0.45629473753344424
6.851063829787231E-5      0.4580190263199959
6.893617021276593E-5      0.4597268711757737
6.936170212765955E-5      0.46141827210077757
6.978723404255316E-5      0.4630932290950077
7.021276595744679E-5      0.4647517421584638
7.06382978723404E-5       0.4663938112911461
7.106382978723402E-5      0.4680202267396348
7.148936170212763E-5      0.4696313716343432
7.191489361702124E-5      0.47122724597527144
7.234042553191486E-5      0.4728078497624194
7.276595744680848E-5      0.47437318299578735
7.31914893617021E-5       0.47592324567537486
7.361702127659572E-5      0.4774580378011823
7.404255319148934E-5      0.47897796861822506
7.446808510638294E-5      0.4804836048829842
7.489361702127655E-5      0.4819749465954596
7.531914893617019E-5      0.4834519937556513
7.574468085106379E-5      0.4849147463635596
7.617021276595741E-5      0.48636320441918396
7.659574468085102E-5      0.4877973679225248
7.702127659574463E-5      0.4892178444717461
7.744680851063826E-5      0.4906248671804249
7.787234042553187E-5      0.4920184360485611
7.82978723404255E-5       0.4933985510761549
7.87234042553191E-5       0.49476521226320624
7.914893617021272E-5      0.49611841960971487
7.957446808510634E-5      0.4974581731156811
7.999999999999997E-5      0.49878512617713555
8.042553191489356E-5      0.5000994550847045
8.085106382978717E-5      0.5014011598383878
8.12765957446808E-5       0.5026902404381857
8.170212765957441E-5      0.503966696884098
8.212765957446802E-5      0.5052305291761248
8.255319148936163E-5      0.5064817373142659
8.297872340425526E-5      0.5077206614921752
8.340425531914888E-5      0.5089477167403424
8.38297872340425E-5       0.5101629030587671
8.425531914893612E-5      0.5113662204474496
8.468085106382974E-5      0.5125576689063901
8.510638297872335E-5      0.513737248435588
8.553191489361698E-5      0.5149049590350439
8.59574468085106E-5       0.5160610981294679
8.638297872340422E-5      0.5172059994448174
8.680851063829783E-5      0.5183396629810924
8.723404255319144E-5      0.519462088738293
8.765957446808508E-5      0.5205732767164194
8.808510638297869E-5      0.521673226915471
8.85106382978723E-5       0.5227619393354483
8.893617021276592E-5      0.5238398986637905
8.936170212765952E-5      0.5249072181037265
8.978723404255313E-5      0.5259638976552561
9.021276595744674E-5      0.5270099373183793
9.063829787234035E-5      0.5280453370930963
9.106382978723398E-5      0.5290700969794069
9.148936170212759E-5      0.5300842169773111
9.191489361702122E-5      0.5310880579499525
9.234042553191483E-5      0.5320818552947402
9.276595744680844E-5      0.5330656090116742
9.319148936170208E-5      0.5340393191007545
9.361702127659569E-5      0.5350029855619813
9.40425531914893E-5       0.5359566083953544
9.446808510638292E-5      0.5369001876008739
9.489361702127655E-5      0.5378339215175509
9.531914893617015E-5      0.5387581227195178
9.574468085106377E-5      0.5396727912067749
9.617021276595738E-5      0.5405779269793216
9.6595744680851E-5        0.5414735300371586
9.702127659574462E-5      0.5423596003802853
9.744680851063823E-5      0.543236138008702
9.787234042553185E-5      0.5441034741246208
9.829787234042548E-5      0.5449617388740282
9.872340425531908E-5      0.5458109322569242
9.914893617021271E-5      0.5466510542733091
9.957446808510633E-5      0.5474821049231827
9.999999999999995E-5      0.5483040842065449
1.0042553191489358E-4     0.5491169921233958
1.008510638297872E-4      0.5499211763367682
1.012765957446808E-4      0.550716760410179
1.0170212765957441E-4     0.5515037443436278
1.0212765957446803E-4     0.5522821281371153
1.0255319148936166E-4     0.5530519117906412
1.0297872340425527E-4     0.553813095304205
1.0340425531914888E-4     0.5545656786778074
1.038297872340425E-4      0.5553098385075675
1.0425531914893612E-4     0.5560458367743342
1.0468085106382971E-4     0.5567736734781072
1.0510638297872335E-4     0.5574933486188866
1.0553191489361695E-4     0.5582048621966724
1.0595744680851058E-4     0.5589082142114645
1.0638297872340419E-4     0.5596034046632632
1.068085106382978E-4      0.5602906110467242
1.0723404255319141E-4     0.5609700343286369
1.0765957446808503E-4     0.5616416745090013
1.0808510638297865E-4     0.562305531587817
1.0851063829787227E-4     0.5629616055650848
1.0893617021276588E-4     0.5636098964408041
1.093617021276595E-4      0.564250404214975
1.0978723404255313E-4     0.5648834217565979
1.1021276595744674E-4     0.5655090290210161
1.1063829787234035E-4     0.5661272260082295
1.1106382978723399E-4     0.5667380127182381
1.114893617021276E-4      0.567341389151042
1.1191489361702123E-4     0.5679373553066409
1.1234042553191484E-4     0.5685259111850353
1.1276595744680846E-4     0.5691072649317511
1.1319148936170207E-4     0.569681587141297
1.1361702127659569E-4     0.5702488778136725
1.140425531914893E-4      0.5708091369488782
1.1446808510638292E-4     0.5713623645469139
1.1489361702127652E-4     0.5719085606077793
1.1531914893617014E-4     0.5724477251314747
1.1574468085106377E-4     0.5729799803250638
1.1617021276595738E-4     0.573505534805477
1.1659574468085099E-4     0.5740243885727141
1.1702127659574462E-4     0.5745365416267751
1.1744680851063824E-4     0.5750419939676604
1.1787234042553185E-4     0.5755407455953695
1.1829787234042546E-4     0.5760327965099027
1.1872340425531909E-4     0.5765183686762418
1.191489361702127E-4      0.5769975493476924
1.1957446808510631E-4     0.5774703385242538
1.1999999999999994E-4     0.5779367362059264
1.2042553191489355E-4     0.5783967423927103
1.2085106382978716E-4     0.5788503570846051
1.2127659574468078E-4     0.5792975802816112
1.2170212765957441E-4     0.5797386379463353
1.2212765957446802E-4     0.5801736270293736
1.2255319148936163E-4     0.5806025475307258
1.2297872340425524E-4     0.5810253994503922
1.2340425531914888E-4     0.5814421827883729
1.238297872340425E-4      0.5818528975446674
1.242553191489361E-4      0.5822575437192761
1.246808510638297E-4      0.5826562343074925
1.2510638297872332E-4     0.5830491605347351
1.2553191489361694E-4     0.5834363224010037
1.2595744680851055E-4     0.5838177199062984
1.2638297872340416E-4     0.5841933530506191
1.268085106382978E-4      0.5845632218339658
1.272340425531914E-4      0.5849273262563386
1.2765957446808505E-4     0.5852857947931275
1.2808510638297863E-4     0.5856387674618663
1.2851063829787224E-4     0.5859862442625547
1.2893617021276588E-4     0.5863282251951929
1.293617021276595E-4      0.5866647102597808
1.297872340425531E-4      0.5869956994563184
1.302127659574467E-4      0.5873211927848057
1.3063829787234032E-4     0.587641398385762
1.3106382978723396E-4     0.5879563800386064
1.3148936170212755E-4     0.5882661377433382
1.3191489361702118E-4     0.588570671499958
1.3234042553191482E-4     0.5888699813084657
1.3276595744680843E-4     0.5891640671688607
1.3319148936170205E-4     0.5894529290811438
1.3361702127659568E-4     0.5897367073764093
1.340425531914893E-4      0.5900155398959865
1.344680851063829E-4      0.5902894266398755
1.3489361702127652E-4     0.5905583676080761
1.3531914893617016E-4     0.5908223628005889
1.3574468085106377E-4     0.5910814122174131
1.3617021276595738E-4     0.5913355158585492
1.36595744680851E-4       0.5915847631807652
1.370212765957446E-4      0.59182931040827
1.374468085106382E-4      0.5920691575410633
1.3787234042553182E-4     0.592304304579145
1.3829787234042546E-4     0.5925347515225156
1.3872340425531907E-4     0.5927604983711743
1.3914893617021268E-4     0.5929815451251219
1.395744680851063E-4      0.5931980585118788
1.399999999999999E-4      0.5934101083777179
1.4042553191489352E-4     0.5936176947226391
1.4085106382978716E-4     0.5938208175466425
1.4127659574468077E-4     0.5940194768497282
1.4170212765957438E-4     0.5942136726318958
1.42127659574468E-4       0.5944034048931457
1.4255319148936163E-4     0.5945888241141626
1.429787234042552E-4      0.5947700298398692
1.4340425531914882E-4     0.5949470220702653
1.4382978723404246E-4     0.595119800805351
1.4425531914893607E-4     0.5952883660451266
1.446808510638297E-4      0.5954527177895915
1.4510638297872332E-4     0.5956128560387463
1.4553191489361696E-4     0.5957688550283149
1.4595744680851054E-4     0.5959208712737404
1.4638297872340416E-4     0.5960689047750232
1.468085106382978E-4      0.5962129555321628
1.472340425531914E-4      0.5963530235451596
1.4765957446808502E-4     0.5964891088140134
1.4808510638297863E-4     0.5966212113387243
1.4851063829787224E-4     0.5967494455655806
1.4893617021276588E-4     0.5968739080733882
1.493617021276595E-4      0.5969945988621469
1.497872340425531E-4      0.5971115179318568
1.5021276595744674E-4     0.5972246652825179
1.5063829787234035E-4     0.5973340409141301
1.5106382978723396E-4     0.5974396448266935
1.5148936170212757E-4     0.5975416390282035
1.519148936170212E-4      0.5976400796325668
1.523404255319148E-4      0.5977349666397836
1.5276595744680843E-4     0.5978263000498539
1.5319148936170204E-4     0.5979140798627779
1.5361702127659563E-4     0.597998306078555
1.5404255319148927E-4     0.5980789786971857
1.5446808510638288E-4     0.5981561986053936
1.548936170212765E-4      0.5982300856536992
1.553191489361701E-4      0.5983006398421022
1.557446808510637E-4      0.5983678611706027
1.5617021276595732E-4     0.5984317496392011
1.5659574468085093E-4     0.5984923052478968
1.5702127659574457E-4     0.5985495279966903
1.574468085106382E-4      0.5986034916390406
1.578723404255318E-4      0.5986543185241617
1.5829787234042543E-4     0.5987020086520536
1.5872340425531904E-4     0.5987465620227164
1.5914893617021266E-4     0.5987879786361501
1.595744680851063E-4      0.5988262584923543
1.599999999999999E-4      0.5988614015913294
1.6042553191489354E-4     0.5988935457774501
1.6085106382978715E-4     0.5989227458675379
1.6127659574468077E-4     0.5989490018615925
1.6170212765957438E-4     0.598972313759614
1.62127659574468E-4       0.5989926815616027
1.6255319148936163E-4     0.5990101052675582
1.6297872340425524E-4     0.5990245848774807
1.6340425531914885E-4     0.5990362346468449
1.6382978723404246E-4     0.5990451444020941
1.642553191489361E-4      0.5990513141432281
1.646808510638297E-4      0.5990547438702473
1.6510638297872332E-4     0.5990554335831515
1.6553191489361693E-4     0.5990533832819404
1.6595744680851054E-4     0.5990485929666144
1.6638297872340415E-4     0.5990411201547556
1.668085106382978E-4      0.5990310932393684
1.6723404255319138E-4     0.5990185122204528
1.6765957446808501E-4     0.5990033770980088
1.6808510638297863E-4     0.5989856878720364
1.6851063829787224E-4     0.5989654445425355
1.6893617021276588E-4     0.5989426471095063
1.693617021276595E-4      0.5989174009189921
1.697872340425531E-4      0.598889773383046
1.702127659574467E-4      0.598859764501668
1.7063829787234032E-4     0.5988273742748581
1.7106382978723396E-4     0.5987926027026165
1.7148936170212757E-4     0.5987554497849427
1.7191489361702118E-4     0.5987159155218371
1.7234042553191482E-4     0.5986741272037718
1.7276595744680843E-4     0.5986301407393433
1.7319148936170204E-4     0.5985839561285512
1.7361702127659565E-4     0.5985355733713957
1.7404255319148926E-4     0.5984849924678773
1.744680851063829E-4      0.5984322134179951
1.7489361702127651E-4     0.5983772362217499
1.7531914893617015E-4     0.5983201265583294
1.7574468085106374E-4     0.5982609983810285
1.7617021276595735E-4     0.598199851689847
1.7659574468085099E-4     0.5981366864847849
1.770212765957446E-4      0.5980715027658425
1.774468085106382E-4      0.5980043005330193
1.7787234042553182E-4     0.5979350797863158
1.7829787234042543E-4     0.5978639002845424
1.7872340425531904E-4     0.5977908621125543
1.7914893617021265E-4     0.5977159652703513
1.795744680851063E-4      0.5976392097579335
1.7999999999999993E-4     0.5975605955753014
1.8042553191489351E-4     0.597480122722454
1.8085106382978715E-4     0.5973977911993922
1.8127659574468076E-4     0.5973137156297845
1.8170212765957437E-4     0.5972279410987305
1.8212765957446799E-4     0.5971404676062299
1.825531914893616E-4      0.5970512951522827
1.829787234042552E-4      0.5969604237368893
1.8340425531914882E-4     0.5968678533600491
1.8382978723404243E-4     0.5967735840217626
1.8425531914893607E-4     0.5966777041652365
1.8468085106382968E-4     0.5965802933720066
1.851063829787233E-4      0.5964813516420725
1.8553191489361693E-4     0.5963808789754346
1.8595744680851054E-4     0.5962788753720927
1.8638297872340418E-4     0.5961753408320466
1.868085106382978E-4      0.5960702753552967
1.8723404255319143E-4     0.5959637255008139
1.8765957446808504E-4     0.5958557961944352
1.8808510638297862E-4     0.5957464874361601
1.8851063829787226E-4     0.595635799225989
1.8893617021276585E-4     0.5955237315639218
1.8936170212765949E-4     0.5954102844499582
1.897872340425531E-4      0.5952954578840988
1.9021276595744673E-4     0.5951793422985264
1.9063829787234032E-4     0.59506198939279
1.9106382978723393E-4     0.5949433991668892
1.9148936170212757E-4     0.5948235716208244
1.9191489361702115E-4     0.5947025067545956
1.923404255319148E-4      0.5945802045682024
1.927659574468084E-4      0.5944566650616452
1.93191489361702E-4       0.5943319898252676
1.9361702127659562E-4     0.5942062280767489
1.9404255319148926E-4     0.5940793798160892
1.9446808510638287E-4     0.5939514450432885
1.9489361702127649E-4     0.5938224237583469
1.953191489361701E-4      0.593692315961264
1.957446808510637E-4      0.5935611216520404
1.9617021276595732E-4     0.5934288902020466
1.9659574468085096E-4     0.5932957178676724
1.9702127659574454E-4     0.5931616046489177
1.9744680851063818E-4     0.5930265505457825
1.978723404255318E-4      0.5928905555582672
1.9829787234042543E-4     0.5927536196863712
1.9872340425531904E-4     0.5926157429300949
1.9914893617021268E-4     0.5924769763238606
1.9957446808510626E-4     0.5923373979858634
1.9999999999999987E-4     0.5921970079161029
2.004255319148935E-4      0.5920558061145794
2.0085106382978715E-4     0.591913792581293
2.0127659574468076E-4     0.5917709673162432
2.0170212765957437E-4     0.5916273303194305
2.02127659574468E-4       0.5914829753209646
2.0255319148936162E-4     0.5913379386660624
2.029787234042552E-4      0.591192220354724
2.0340425531914887E-4     0.5910458203869493
2.0382978723404246E-4     0.5908987387627386
2.042553191489361E-4      0.5907509754820914
2.046808510638297E-4      0.5906025305450081
2.0510638297872332E-4     0.5904534709611892
2.0553191489361693E-4     0.5903038646956408
2.0595744680851054E-4     0.5901537117483632
2.0638297872340415E-4     0.590003012119356
2.0680851063829776E-4     0.5898517658086199
2.0723404255319137E-4     0.589699972816154
2.0765957446808498E-4     0.589547633141959
2.080851063829786E-4      0.5893947840161325
2.085106382978722E-4      0.5892415082805519
2.0893617021276582E-4     0.5890878059352169
2.0936170212765946E-4     0.5889336769801274
2.097872340425531E-4      0.5887791214152841
2.1021276595744668E-4     0.5886241392406861
2.1063829787234032E-4     0.588468730456334
2.1106382978723393E-4     0.5883129694692871
2.1148936170212754E-4     0.5881568950625284
2.1191489361702115E-4     0.5880005072360583
2.1234042553191476E-4     0.5878438059898766
2.1276595744680837E-4     0.5876867913239835
2.1319148936170198E-4     0.5875294632383785
2.136170212765956E-4      0.5873718217330621
2.140425531914892E-4      0.5872139449040276
2.1446808510638282E-4     0.5870558738717518
2.1489361702127643E-4     0.5868976086362352
2.1531914893617004E-4     0.5867391491974774
2.1574468085106365E-4     0.5865804955554785
2.1617021276595726E-4     0.5864216477102384
2.1659574468085087E-4     0.5862626056617574
2.170212765957445E-4      0.5861034060542291
2.1744680851063815E-4     0.5859441252646443
2.1787234042553176E-4     0.5857847632930028
2.1829787234042537E-4     0.5856253201393048
2.1872340425531898E-4     0.5854657958035503
2.1914893617021265E-4     0.5853061902857389
2.1957446808510626E-4     0.5851465035858713
2.199999999999999E-4      0.5849867777689692
2.2042553191489348E-4     0.5848270703133654
2.208510638297871E-4      0.5846673812190603
2.2127659574468073E-4     0.5845077104860535
2.2170212765957432E-4     0.5843480581143453
2.2212765957446796E-4     0.5841884241039353
2.2255319148936157E-4     0.584028808454824
2.229787234042552E-4      0.5838692835847478
2.234042553191488E-4      0.5837098774751466
2.238297872340424E-4      0.5835505901260201
2.2425531914893604E-4     0.5833914215373682
2.2468085106382965E-4     0.5832323717091915
2.2510638297872326E-4     0.5830734406414892
2.2553191489361687E-4     0.5829146283342619
2.2595744680851048E-4     0.5827559824535106
2.2638297872340412E-4     0.5825975573624008
2.268085106382977E-4      0.5824393530609329
2.2723404255319137E-4     0.5822813695491063
2.2765957446808498E-4     0.5821236068269217
2.280851063829786E-4      0.5819660648943785
2.2851063829787223E-4     0.5818087437514771
2.2893617021276587E-4     0.5816516715619252
2.2936170212765948E-4     0.5814949092999117
2.2978723404255307E-4     0.5813384569654367
2.302127659574467E-4      0.5811823145585003
2.3063829787234032E-4     0.5810264820791026
2.3106382978723393E-4     0.5808709595272432
2.3148936170212754E-4     0.5807157469029225
2.3191489361702118E-4     0.5805608996290345
2.3234042553191476E-4     0.5804064466015417
2.3276595744680837E-4     0.5802523878204445
2.3319148936170198E-4     0.5800987232857425
2.336170212765956E-4      0.5799454529974362
2.3404255319148923E-4     0.579792576955525
2.3446808510638284E-4     0.5796400951600094
2.3489361702127648E-4     0.579488057623368
2.3531914893617007E-4     0.5793365017314827
2.3574468085106368E-4     0.5791854274843531
2.3617021276595732E-4     0.5790348348819797
2.3659574468085093E-4     0.5788847239243625
2.3702127659574454E-4     0.5787350946115011
2.3744680851063818E-4     0.5785859469433958
2.378723404255318E-4      0.5784373036961366
2.382978723404254E-4      0.5782892209999546
2.3872340425531898E-4     0.5781416988548499
2.391489361702126E-4      0.5779947372608222
2.3957446808510623E-4     0.577848336217872
2.3999999999999982E-4     0.5777024957259987
2.4042553191489345E-4     0.5775572157852028
2.4085106382978707E-4     0.5774125312900671
2.412765957446807E-4      0.5772684774770565
2.417021276595743E-4      0.577125054346171
2.4212765957446793E-4     0.5769822618974104
2.4255319148936154E-4     0.576840100130775
2.4297872340425515E-4     0.5766985690462646
2.434042553191488E-4      0.5765576686438794
2.4382978723404243E-4     0.5764174483076102
2.4425531914893604E-4     0.5762779287603254
2.4468085106382965E-4     0.5761391100020248
2.4510638297872326E-4     0.5760009920327086
2.4553191489361687E-4     0.5758635748523768
2.4595744680851054E-4     0.5757268584610291
2.4638297872340415E-4     0.5755908428586659
2.4680851063829776E-4     0.5754555571688689
2.4723404255319137E-4     0.575321040560357
2.47659574468085E-4       0.57518729303313
2.480851063829786E-4      0.5750543145871883
2.4851063829787226E-4     0.5749221052225315
2.4893617021276587E-4     0.5747906649391596
2.493617021276595E-4      0.5746599937370728
2.497872340425531E-4      0.5745301110692762
2.502127659574467E-4      0.5744010556122077
2.5063829787234026E-4     0.574272827365867
2.510638297872339E-4      0.5741454263302546
2.5148936170212754E-4     0.5740188525053703
2.5191489361702115E-4     0.5738931058912139
2.5234042553191476E-4     0.5737681864877856
2.5276595744680837E-4     0.5736441309620981
2.53191489361702E-4       0.5735209570156199
2.536170212765956E-4      0.573398664648351
2.540425531914892E-4      0.5732772538602912
2.5446808510638287E-4     0.5731567246514411
2.548936170212765E-4      0.5730370770217998
2.553191489361701E-4      0.5729183109713681
2.557446808510637E-4      0.5728004554433428
2.561702127659573E-4      0.572683535952928
2.565957446808509E-4      0.5725675525001236
2.570212765957446E-4      0.5724525050849293
2.574468085106382E-4      0.5723383937073456
2.578723404255318E-4      0.5722252183673722
2.582978723404254E-4      0.5721129790650092
2.587234042553191E-4      0.5720016881884629
2.591489361702127E-4      0.5718913799189927
2.595744680851063E-4      0.5717820542565988
2.599999999999999E-4      0.571673711201281
2.6042553191489353E-4     0.5715663507530397
2.6085106382978715E-4     0.5714599729118743
2.6127659574468076E-4     0.5713545776777853
2.6170212765957437E-4     0.5712501873255659
2.62127659574468E-4       0.5711468197761915
2.625531914893616E-4      0.5710444750296622
2.629787234042552E-4      0.5709431530859773
2.634042553191488E-4      0.5708428539451379
2.638297872340424E-4      0.570743577607143
2.6425531914893604E-4     0.5706453240719932
2.6468085106382965E-4     0.5705481194383424
2.6510638297872326E-4     0.5704519769005578
2.6553191489361687E-4     0.5703568964586393
2.659574468085105E-4      0.5702628781125869
2.663829787234041E-4      0.570169921862401
2.668085106382977E-4      0.5700780277080809
2.672340425531913E-4      0.5699871956496272
2.67659574468085E-4       0.5698974359801334
2.680851063829786E-4      0.569808773553243
2.685106382978722E-4      0.5697212083689553
2.6893617021276587E-4     0.5696347404272712
2.693617021276595E-4      0.5695493697281903
2.6978723404255314E-4     0.5694650962717123
2.7021276595744675E-4     0.5693819200578375
2.7063829787234037E-4     0.5692998515373232
2.71063829787234E-4       0.5692189076233674
2.714893617021276E-4      0.5691390883159695
2.719148936170212E-4      0.56906039361513
2.723404255319148E-4      0.568982823520849
2.727659574468084E-4      0.5689063780331258
2.7319148936170203E-4     0.568831057151961
2.736170212765957E-4      0.5687568644745371
2.7404255319148926E-4     0.568683823844165
2.7446808510638287E-4     0.5686119352608447
2.7489361702127653E-4     0.5685411987245763
2.7531914893617014E-4     0.5684716142353599
2.7574468085106375E-4     0.568403181793195
2.7617021276595737E-4     0.5683359013980822
2.76595744680851E-4       0.5682697975211146
2.770212765957446E-4      0.5682048555105017
2.774468085106382E-4      0.5681410753662431
2.778723404255318E-4      0.568078457088339