% Model:              ModelMicPlate_Rh100um_hg10um_Refined_MaterialDefPolySilicon.mph
% Version:            COMSOL 6.3.0.420
% Date:               Aug 12 2025, 09:08
% Dimension:          1
% Nodes:              708
% Expressions:        1
% Description:        Line graph
% Arc length (m)          imag(w2)
0                         1.4719219223872688E-11
4.2016806722688943E-7     1.4719122669961976E-11
8.403361344537784E-7      1.4718833471409992E-11
1.260504201680668E-6      1.471835162821673E-11
1.6806722689075569E-6     1.4717677140382203E-11
2.1008403361344462E-6     1.47168100079064E-11
2.521008403361336E-6      1.471575023078932E-11
2.941176470588225E-6      1.4714497809030972E-11
3.361344537815116E-6      1.4713052488406018E-11
3.781512605042006E-6      1.4711414792814003E-11
4.2016806722688975E-6     1.4709584722254922E-11
4.621848739495788E-6      1.4707562276728787E-11
5.0420168067226796E-6     1.470534745623559E-11
5.46218487394957E-6       1.470294026077533E-11
5.882352941176461E-6      1.4700340690348012E-11
6.302521008403353E-6      1.46975486035578E-11
6.722689075630246E-6      1.469456467440512E-11
7.1428571428571385E-6     1.4691388902889975E-11
7.563025210084031E-6      1.4688021289012367E-11
7.983193277310924E-6      1.4684461832772293E-11
8.403361344537817E-6      1.4680710534169753E-11
8.823529411764708E-6      1.4676767393204753E-11
9.2436974789916E-6        1.4672632403488328E-11
9.66386554621849E-6       1.4668306367895793E-11
1.0084033613445381E-5     1.4663789286427146E-11
1.0504201680672271E-5     1.465908115908239E-11
1.0924369747899162E-5     1.4654181985861525E-11
1.1344537815126054E-5     1.464909176676455E-11
1.1764705882352944E-5     1.4643810501791463E-11
1.2184873949579835E-5     1.4638338319968694E-11
1.2605042016806726E-5     1.4632676152945352E-11
1.3025210084033616E-5     1.462682400072143E-11
1.3445378151260506E-5     1.462078186329694E-11
1.3865546218487399E-5     1.461454974067187E-11
1.4285714285714289E-5     1.4608127632846224E-11
1.470588235294118E-5      1.4601515539820002E-11
1.5126050420168068E-5     1.459471372423493E-11
1.5546218487394955E-5     1.4587723246911573E-11
1.5966386554621844E-5     1.4580544107849922E-11
1.638655462184873E-5      1.4573176307049982E-11
1.6806722689075617E-5     1.4565619844511758E-11
1.7226890756302507E-5     1.4557874720235236E-11
1.7647058823529393E-5     1.454994093422043E-11
1.8067226890756286E-5     1.4541818881787582E-11
1.8487394957983176E-5     1.4533509752243638E-11
1.8907563025210073E-5     1.4525013545588585E-11
1.9327731092436962E-5     1.4516330261822438E-11
1.974789915966386E-5      1.450745990094519E-11
2.0168067226890752E-5     1.4498402462956838E-11
2.0588235294117642E-5     1.4489157947857387E-11
2.1008403361344535E-5     1.4479726882958902E-11
2.1428571428571425E-5     1.447011058487901E-11
2.1848739495798315E-5     1.4460309053617704E-11
2.2268907563025204E-5     1.4450322289174987E-11
2.2689075630252094E-5     1.4440150291550864E-11
2.3109243697478987E-5     1.4429793060745327E-11
2.3529411764705877E-5     1.4419250596758382E-11
2.394957983193277E-5      1.44085235581562E-11
2.436974789915966E-5      1.4397613387454587E-11
2.478991596638655E-5      1.4386520084653534E-11
2.521008403361344E-5      1.4375243649753047E-11
2.5630252100840332E-5     1.4363784082753125E-11
2.6050420168067226E-5     1.4352141383653767E-11
2.6470588235294115E-5     1.4340315552454972E-11
2.6890756302521005E-5     1.4328307378106331E-11
2.7310924369747895E-5     1.4316118427440942E-11
2.7731092436974788E-5     1.430374870045879E-11
2.8151260504201674E-5     1.4291198197159885E-11
2.8571428571428567E-5     1.4278466917544228E-11
2.899159663865546E-5      1.4265554861611814E-11
2.941176470588235E-5      1.4252462029362645E-11
2.983193277310924E-5      1.4239189339106655E-11
3.025210084033613E-5      1.4225738480263885E-11
3.067226890756302E-5      1.4212109452834328E-11
3.109243697478991E-5      1.419830225681799E-11
3.1512605042016806E-5     1.418431689221487E-11
3.1932773109243696E-5     1.417015335902497E-11
3.2352941176470585E-5     1.4155811657248285E-11
3.2773109243697475E-5     1.4141292833379981E-11
3.3193277310924365E-5     1.412659869754795E-11
3.3613445378151255E-5     1.4111729249752185E-11
3.4033613445378144E-5     1.409668448999269E-11
3.445378151260504E-5      1.4081464418269471E-11
3.487394957983193E-5      1.4066069034582517E-11
3.529411764705882E-5      1.4050498338931833E-11
3.571428571428571E-5      1.4034753504670717E-11
3.61344537815126E-5       1.4018836460610287E-11
3.6554621848739496E-5     1.4002747206750536E-11
3.697478991596638E-5      1.3986485743091477E-11
3.7394957983193276E-5     1.3970052069633099E-11
3.781512605042017E-5      1.3953446186375401E-11
3.8235294117647055E-5     1.3936668093318392E-11
3.8655462184873945E-5     1.3919719089195698E-11
3.907563025210084E-5      1.3902601219332074E-11
3.949579831932773E-5      1.3885314483727512E-11
3.991596638655462E-5      1.3867858882382019E-11
4.033613445378151E-5      1.3850234415295594E-11
4.075630252100841E-5      1.3832441082468233E-11
4.11764705882353E-5       1.3814478883899937E-11
4.1596638655462194E-5     1.3796349242077608E-11
4.2016806722689084E-5     1.3778054316525758E-11
4.2436974789915967E-5     1.3759594107244378E-11
4.285714285714286E-5      1.374096861423348E-11
4.327731092436975E-5      1.3722177837493059E-11
4.369747899159664E-5      1.3703221777023114E-11
4.411764705882353E-5      1.3684100432823643E-11
4.453781512605042E-5      1.3664815349360454E-11
4.495798319327731E-5      1.3645368797899177E-11
4.53781512605042E-5       1.3625760778439807E-11
4.5798319327731085E-5     1.3605991290982347E-11
4.621848739495798E-5      1.3586060335526799E-11
4.6638655462184864E-5     1.3565967912073157E-11
4.7058823529411754E-5     1.3545714020621426E-11
4.747899159663865E-5      1.3525300325695909E-11
4.789915966386554E-5      1.3504729207700211E-11
4.831932773109242E-5      1.3484000666634323E-11
4.873949579831932E-5      1.3463114702498255E-11
4.915966386554621E-5      1.3442071315291999E-11
4.95798319327731E-5       1.3420870505015559E-11
4.999999999999999E-5      1.3399512271668931E-11
5.042016806722688E-5      1.3377998397767517E-11
5.0840336134453775E-5     1.3356331370105668E-11
5.1260504201680665E-5     1.3334511188683377E-11
5.1680672268907555E-5     1.3312537853500651E-11
5.210084033613445E-5      1.3290411364557485E-11
5.252100840336134E-5      1.3268131721853883E-11
5.294117647058823E-5      1.3245698925389843E-11
5.336134453781512E-5      1.3223114873461247E-11
5.378151260504201E-5      1.320038215635762E-11
5.420168067226891E-5      1.3177500774078953E-11
5.462184873949579E-5      1.315447072662526E-11
5.5042016806722686E-5     1.3131292013996538E-11
5.546218487394958E-5      1.3107964636192779E-11
5.5882352941176466E-5     1.308448859321399E-11
5.6302521008403355E-5     1.3060865896782349E-11
5.6722689075630245E-5     1.3037099237637477E-11
5.714285714285714E-5      1.3013188615779374E-11
5.7563025210084025E-5     1.2989134031208043E-11
5.798319327731092E-5      1.2964935483923482E-11
5.840336134453782E-5      1.2940592973925688E-11
5.88235294117647E-5       1.2916106501214665E-11
5.92436974789916E-5       1.289147818844123E-11
5.966386554621848E-5      1.286671082359536E-11
6.008403361344538E-5      1.2841804406677044E-11
6.050420168067226E-5      1.2816758937686294E-11
6.0924369747899156E-5     1.2791574416623107E-11
6.134453781512605E-5      1.2766250843487478E-11
6.176470588235294E-5      1.2740788218279411E-11
6.218487394957983E-5      1.2715188771937208E-11
6.260504201680672E-5      1.2689455386339887E-11
6.302521008403361E-5      1.2663588061487437E-11
6.34453781512605E-5       1.2637586797379867E-11
6.386554621848739E-5      1.2611451594017172E-11
6.428571428571429E-5      1.2585182451399355E-11
6.470588235294117E-5      1.2558779369526417E-11
6.512605042016805E-5      1.25322446848389E-11
6.554621848739495E-5      1.2505581369571585E-11
6.596638655462185E-5      1.2478789423724463E-11
6.638655462184873E-5      1.2451868847297545E-11
6.680672268907563E-5      1.2424819640290823E-11
6.722689075630252E-5      1.2397641802704298E-11
6.76470588235294E-5       1.2370335334537973E-11
6.806722689075629E-5      1.2342902674803783E-11
6.848739495798319E-5      1.231534688237211E-11
6.890756302521008E-5      1.2287667957242948E-11
6.932773109243696E-5      1.2259865899416303E-11
6.974789915966386E-5      1.2231940708892176E-11
7.016806722689076E-5      1.2203892385670561E-11
7.058823529411764E-5      1.217572092975146E-11
7.100840336134452E-5      1.2147428879639017E-11
7.142857142857142E-5      1.2119019376910601E-11
7.184873949579832E-5      1.2090492421566205E-11
7.22689075630252E-5       1.2061848013605837E-11
7.26890756302521E-5       1.2033086153029495E-11
7.310924369747899E-5      1.2004206839837177E-11
7.352941176470588E-5      1.1975210074028882E-11
7.394957983193276E-5      1.1946098490369118E-11
7.436974789915967E-5      1.1916875308974184E-11
7.478991596638655E-5      1.1887540529844073E-11
7.521008403361343E-5      1.1858094152978792E-11
7.563025210084034E-5      1.1828536178378337E-11
7.605042016806723E-5      1.1798866606042709E-11
7.647058823529412E-5      1.1769085435971906E-11
7.689075630252102E-5      1.1739195395800466E-11
7.73109243697479E-5       1.1709199779731006E-11
7.773109243697479E-5      1.1679098587763519E-11
7.815126050420167E-5      1.1648891819898009E-11
7.857142857142857E-5      1.1618579476134476E-11
7.899159663865546E-5      1.158816155647292E-11
7.941176470588235E-5      1.155763806091334E-11
7.983193277310923E-5      1.152701180640764E-11
8.025210084033613E-5      1.1496286156436445E-11
8.067226890756302E-5      1.146546111099975E-11
8.10924369747899E-5       1.1434536670097563E-11
8.151260504201682E-5      1.140351283372988E-11
8.19327731092437E-5       1.1372389601896698E-11
8.23529411764706E-5       1.134116697459802E-11
8.277310924369749E-5      1.1309847854441277E-11
8.319327731092437E-5      1.1278435668842795E-11
8.361344537815127E-5      1.124693041780257E-11
8.403361344537815E-5      1.121533210132061E-11
8.445378151260505E-5      1.1183640719396907E-11
8.487394957983195E-5      1.1151856272031465E-11
8.529411764705883E-5      1.1119978759224284E-11
8.571428571428573E-5      1.1088011165835285E-11
8.613445378151261E-5      1.1055956976716964E-11
8.655462184873949E-5      1.1023816191869311E-11
8.697478991596639E-5      1.0991588811292334E-11
8.739495798319329E-5      1.0959274834986034E-11
8.781512605042018E-5      1.0926874262950403E-11
8.823529411764706E-5      1.0894387095185447E-11
8.865546218487395E-5      1.0861816397783998E-11
8.907563025210084E-5      1.0829165702352871E-11
8.949579831932774E-5      1.0796435008892062E-11
8.991596638655461E-5      1.0763624317401576E-11
9.033613445378152E-5      1.073073362788141E-11
9.075630252100842E-5      1.0697762940331566E-11
9.11764705882353E-5       1.0664712254752043E-11
9.15966386554622E-5       1.063158473258746E-11
9.201680672268908E-5      1.0598383920166394E-11
9.243697478991596E-5      1.0565109817488832E-11
9.285714285714286E-5      1.0531762424554786E-11
9.327731092436976E-5      1.0498341741364255E-11
9.369747899159665E-5      1.0464847767917233E-11
9.411764705882353E-5      1.0431280504213723E-11
9.453781512605042E-5      1.0397643309400416E-11
9.495798319327731E-5      1.036393959314024E-11
9.53781512605042E-5       1.0330169355433194E-11
9.57983193277311E-5       1.0296332596279282E-11
9.621848739495799E-5      1.0262429315678503E-11
9.663865546218487E-5      1.0228459513630855E-11
9.705882352941177E-5      1.0194423190136338E-11
9.747899159663867E-5      1.0160324165571316E-11
9.789915966386555E-5      1.0126165514993517E-11
9.831932773109245E-5      1.0091947238402932E-11
9.873949579831933E-5      1.0057669335799568E-11
9.915966386554623E-5      1.0023331807183428E-11
9.957983193277312E-5      9.988934652554505E-12
1.0E-4                    9.954477871912798E-12
1.004264392324094E-4      9.919448826846691E-12
1.0085287846481877E-4     9.884365869473542E-12
1.0127931769722815E-4     9.849228999793351E-12
1.0170575692963754E-4     9.814038217806119E-12
1.0213219616204692E-4     9.77879352351185E-12
1.025586353944563E-4      9.743494916910534E-12
1.0298507462686569E-4     9.70814239800218E-12
1.0341151385927508E-4     9.672738299499475E-12
1.0383795309168445E-4     9.637287561476215E-12
1.0426439232409383E-4     9.601790183932403E-12
1.0469083155650321E-4     9.56624616686804E-12
1.0511727078891259E-4     9.530655510283124E-12
1.0554371002132197E-4     9.495018214177655E-12
1.0597014925373135E-4     9.459334278551632E-12
1.0639658848614073E-4     9.423606867260737E-12
1.0682302771855012E-4     9.38784009239875E-12
1.0724946695095948E-4     9.352033953965665E-12
1.0767590618336888E-4     9.31618845196149E-12
1.0810234541577824E-4     9.280303586386224E-12
1.0852878464818763E-4     9.24437935723986E-12
1.0895522388059701E-4     9.208415764522404E-12
1.093816631130064E-4      9.172416324882554E-12
1.0980810234541578E-4     9.136384885333607E-12
1.1023454157782515E-4     9.100321445875567E-12
1.1066098081023454E-4     9.064226006508435E-12
1.1108742004264393E-4     9.02809856723221E-12
1.115138592750533E-4      8.991939128046889E-12
1.1194029850746269E-4     8.955747688952476E-12
1.1236673773987208E-4     8.919527840231183E-12
1.1279317697228145E-4     8.883283356563342E-12
1.1321961620469083E-4     8.847014237948952E-12
1.1364605543710021E-4     8.810720484388017E-12
1.1407249466950959E-4     8.774402095880535E-12
1.1449893390191897E-4     8.738059072426504E-12
1.1492537313432836E-4     8.701691414025925E-12
1.1535181236673775E-4     8.665302726598864E-12
1.1577825159914712E-4     8.628896740511624E-12
1.162046908315565E-4      8.592473455764201E-12
1.1663113006396588E-4     8.556032872356601E-12
1.1705756929637526E-4     8.519574990288822E-12
1.1748400852878464E-4     8.483099809560861E-12
1.1791044776119402E-4     8.44660733017272E-12
1.1833688699360342E-4     8.410101155460032E-12
1.187633262260128E-4      8.373584970104223E-12
1.1918976545842218E-4     8.337058774105292E-12
1.1961620469083157E-4     8.300522567463243E-12
1.2004264392324095E-4     8.263976350178074E-12
1.2046908315565034E-4     8.22742012224978E-12
1.2089552238805972E-4     8.19085388367837E-12
1.2132196162046911E-4     8.154281224606177E-12
1.2174840085287848E-4     8.117705777740743E-12
1.2217484008528786E-4     8.081127543082062E-12
1.2260127931769724E-4     8.044546520630135E-12
1.2302771855010662E-4     8.007962710384968E-12
1.23454157782516E-4       7.971376112346552E-12
1.2388059701492538E-4     7.934786726514893E-12
1.2430703624733477E-4     7.898198120976993E-12
1.2473347547974415E-4     7.861613869645454E-12
1.2515991471215353E-4     7.825033972520271E-12
1.255863539445629E-4      7.788458429601445E-12
1.260127931769723E-4      7.751887240888983E-12
1.2643923240938167E-4     7.715320406382876E-12
1.2686567164179105E-4     7.678757926083129E-12
1.2729211087420043E-4     7.642203337836905E-12
1.2771855010660981E-4     7.605660150162714E-12
1.281449893390192E-4      7.569128363060554E-12
1.2857142857142858E-4     7.532607976530427E-12
1.2899786780383796E-4     7.496098990572334E-12
1.2942430703624734E-4     7.45960140518627E-12
1.2985074626865672E-4     7.423115220372239E-12
1.302771855010661E-4      7.386643936019219E-12
1.3070362473347548E-4     7.350190988982351E-12
1.3113006396588486E-4     7.313756379261634E-12
1.3155650319829424E-4     7.277340106857068E-12
1.3198294243070362E-4     7.240942171768659E-12
1.32409381663113E-4       7.204562573996397E-12
1.3283582089552239E-4     7.16820131354029E-12
1.3326226012793177E-4     7.1318618450201596E-12
1.3368869936034115E-4     7.095547527688042E-12
1.3411513859275053E-4     7.059258361543935E-12
1.345415778251599E-4      7.022994346587838E-12
1.349680170575693E-4      6.986755482819755E-12
1.3539445628997867E-4     6.95054177023968E-12
1.3582089552238805E-4     6.914353208847617E-12
1.3624733475479743E-4     6.87819320106391E-12
1.3667377398720682E-4     6.8420650229096796E-12
1.371002132196162E-4      6.805968674384929E-12
1.3752665245202558E-4     6.7699041554896585E-12
1.3795309168443496E-4     6.7338714662238685E-12
1.3837953091684434E-4     6.6978706065875545E-12
1.3880597014925372E-4     6.661901576580721E-12
1.392324093816631E-4      6.625967719842337E-12
1.3965884861407248E-4     6.590072223839761E-12
1.4008528784648186E-4     6.554215088572992E-12
1.4051172707889124E-4     6.518396314042033E-12
1.4093816631130063E-4     6.482615900246883E-12
1.4136460554371E-4        6.4468738471875384E-12
1.417910447761194E-4      6.411170154864004E-12
1.422174840085288E-4      6.375508101887185E-12
1.4264392324093815E-4     6.339890782131466E-12
1.4307036247334753E-4     6.304318195596846E-12
1.4349680170575694E-4     6.268790342283324E-12
1.4392324093816635E-4     6.233307222190904E-12
1.443496801705757E-4      6.197868835319581E-12
1.447761194029851E-4      6.162475181669358E-12
1.452025586353945E-4      6.127129468890724E-12
1.4562899786780387E-4     6.091834692501747E-12
1.4605543710021325E-4     6.0565908525024235E-12
1.4648187633262263E-4     6.021397948892754E-12
1.4690831556503201E-4     5.986255981672743E-12
1.473347547974414E-4      5.951164950842383E-12
1.4776119402985075E-4     5.91612485640168E-12
1.4818763326226013E-4     5.881138829408337E-12
1.486140724946695E-4      5.846209762523984E-12
1.490405117270789E-4      5.811337655748618E-12
1.4946695095948827E-4     5.776522509082241E-12
1.4989339019189766E-4     5.7417643225248535E-12
1.5031982942430704E-4     5.7070630960764544E-12
1.5074626865671642E-4     5.672418829737043E-12
1.511727078891258E-4      5.637834572625225E-12
1.5159914712153518E-4     5.603313110299811E-12
1.5202558635394456E-4     5.568854442760801E-12
1.5245202558635394E-4     5.534458570008194E-12
1.5287846481876332E-4     5.500125492041994E-12
1.533049040511727E-4      5.4658552088621965E-12
1.5373134328358208E-4     5.4316477204688045E-12
1.5415778251599147E-4     5.397505988971061E-12
1.5458422174840087E-4     5.363432688821656E-12
1.5501066098081023E-4     5.32942782002059E-12
1.5543710021321964E-4     5.295491382567864E-12
1.5586353944562902E-4     5.261623376463477E-12
1.5628997867803837E-4     5.2278238017074284E-12
1.5671641791044778E-4     5.19409265829972E-12
1.5714285714285716E-4     5.160432816533323E-12
1.5756929637526654E-4     5.1268468359889675E-12
1.5799573560767592E-4     5.09333471666665E-12
1.584221748400853E-4      5.0598964585663736E-12
1.5884861407249468E-4     5.0265320616881396E-12
1.5927505330490407E-4     4.993241526031943E-12
1.5970149253731345E-4     4.960024851597789E-12
1.6012793176972283E-4     4.926884812309661E-12
1.605543710021322E-4      4.893823849339258E-12
1.609808102345416E-4      4.860841962686578E-12
1.6140724946695097E-4     4.827939152351622E-12
1.6183368869936035E-4     4.795115418334391E-12
1.6226012793176973E-4     4.762370760634883E-12
1.6268656716417911E-4     4.729705179253099E-12
1.631130063965885E-4      4.697121347437555E-12
1.6353944562899788E-4     4.6646215846358395E-12
1.6396588486140726E-4     4.632205890847952E-12
1.6439232409381664E-4     4.599874266073894E-12
1.6481876332622602E-4     4.5676267103136644E-12
1.652452025586354E-4      4.535463223567263E-12
1.6567164179104478E-4     4.5033838058346904E-12
1.6609808102345416E-4     4.471391025619131E-12
1.6652452025586354E-4     4.439487077545563E-12
1.6695095948827292E-4     4.407671961613987E-12
1.673773987206823E-4      4.3759456778244034E-12
1.6780383795309169E-4     4.344308226176814E-12
1.6823027718550107E-4     4.312759606671215E-12
1.6865671641791045E-4     4.281299819307609E-12
1.6908315565031983E-4     4.249931324007136E-12
1.695095948827292E-4      4.218656187681144E-12
1.699360341151386E-4      4.187474410329633E-12
1.7036247334754797E-4     4.1563859919526025E-12
1.7078891257995735E-4     4.125390932550056E-12
1.7121535181236673E-4     4.094489232121989E-12
1.7164179104477612E-4     4.063680890668404E-12
1.720682302771855E-4      4.0329682559134865E-12
1.7249466950959488E-4     4.002353264370618E-12
1.7292110874200426E-4     3.971835916039798E-12
1.7334754797441364E-4     3.9414162109210255E-12
1.7377398720682302E-4     3.911094149014304E-12
1.742004264392324E-4      3.880869730319628E-12
1.7462686567164178E-4     3.8507429548370015E-12
1.7505330490405116E-4     3.82071605469728E-12
1.7547974413646055E-4     3.790790833529022E-12
1.7590618336886993E-4     3.7609672913322275E-12
1.763326226012793E-4      3.731245428106896E-12
1.767590618336887E-4      3.70162524385303E-12
1.7718550106609807E-4     3.672106738570626E-12
1.7761194029850745E-4     3.642689912259686E-12
1.7803837953091683E-4     3.6133768782744166E-12
1.784648187633262E-4      3.5841693050650317E-12
1.788912579957356E-4      3.5550671926315306E-12
1.7931769722814497E-4     3.5260705409739143E-12
1.7974413646055436E-4     3.497179350092184E-12
1.8017057569296374E-4     3.4683936199863363E-12
1.8059701492537312E-4     3.4397133506563743E-12
1.810234541577825E-4      3.4111405337012254E-12
1.8144989339019188E-4     3.3826767002896263E-12
1.8187633262260126E-4     3.3543218504215758E-12
1.8230277185501064E-4     3.3260759840970755E-12
1.8272921108742002E-4     3.2979391013161254E-12
1.831556503198294E-4      3.269911202078723E-12
1.8358208955223879E-4     3.2419922863848714E-12
1.8400852878464817E-4     3.2141842213026614E-12
1.8443496801705755E-4     3.186488398798528E-12
1.8486140724946693E-4     3.158904818872471E-12
1.852878464818763E-4      3.1314334815244914E-12
1.857142857142857E-4      3.1040743867545893E-12
1.8614072494669507E-4     3.076827534562762E-12
1.8656716417910445E-4     3.0496929249490135E-12
1.8699360341151383E-4     3.022672297870616E-12
1.8742004264392321E-4     2.995766904351294E-12
1.878464818763326E-4      2.9689767443910465E-12
1.8827292110874198E-4     2.9423018179898745E-12
1.8869936034115136E-4     2.9157421251477784E-12
1.8912579957356074E-4     2.8892976658647567E-12
1.8955223880597012E-4     2.8629684401408106E-12
1.899786780383795E-4      2.8367560584345413E-12
1.904051172707889E-4      2.8106616292606993E-12
1.9083155650319826E-4     2.784685152619284E-12
1.9125799573560764E-4     2.758826628510296E-12
1.9168443496801702E-4     2.7330860569337366E-12
1.9211087420042643E-4     2.707463437889603E-12
1.9253731343283581E-4     2.6819587713778974E-12
1.929637526652452E-4      2.656573536157734E-12
1.9339019189765455E-4     2.631308696838844E-12
1.9381663113006393E-4     2.6061642534212246E-12
1.942430703624733E-4      2.5811402059048774E-12
1.9466950959488272E-4     2.556236554289803E-12
1.9509594882729207E-4     2.531453298576E-12
1.9552238805970145E-4     2.506790438763469E-12
1.9594882729211084E-4     2.482249319893923E-12
1.9637526652452024E-4     2.4578307614416728E-12
1.968017057569296E-4      2.433534763406717E-12
1.97228144989339E-4       2.4093613257890577E-12
1.9765458422174841E-4     2.3853104485886945E-12
1.980810234541578E-4      2.3613821318056255E-12
1.9850746268656718E-4     2.337576375439853E-12
1.9893390191897656E-4     2.313894388974127E-12
1.9936034115138594E-4     2.290336845679583E-12
1.9978678038379532E-4     2.26690374555622E-12
2.002132196162047E-4      2.2435950886040388E-12
2.0063965884861408E-4     2.2204108748230402E-12
2.0106609808102346E-4     2.1973511042132218E-12
2.0149253731343284E-4     2.174415776774586E-12
2.0191897654584222E-4     2.151605964765559E-12
2.023454157782516E-4      2.128922194340613E-12
2.0277185501066093E-4     2.106364465499748E-12
2.0319829424307034E-4     2.0839327782429636E-12
2.0362473347547972E-4     2.061627132570261E-12
2.0405117270788908E-4     2.039447528481639E-12
2.0447761194029846E-4     2.017393965977098E-12
2.0490405117270784E-4     1.9954673785934534E-12
2.0533049040511725E-4     1.973668144608965E-12
2.057569296375266E-4      1.951996264023632E-12
2.06183368869936E-4       1.9304517368374553E-12
2.0660980810234542E-4     1.909034563050435E-12
2.070362473347548E-4      1.8877447426625704E-12
2.0746268656716418E-4     1.866582275673862E-12
2.0788912579957356E-4     1.8455479555672474E-12
2.0831556503198294E-4     1.8246420121325987E-12
2.087420042643923E-4      1.8038644453699164E-12
2.091684434968017E-4      1.7832152552791998E-12
2.0959488272921106E-4     1.76269444186045E-12
2.1002132196162044E-4     1.7423020051136656E-12
2.1044776119402982E-4     1.7220379450388478E-12
2.108742004264392E-4      1.7019029138938505E-12
2.1130063965884858E-4     1.6818969925110327E-12
2.1172707889125793E-4     1.662020180890394E-12
2.1215351812366734E-4     1.642272479031935E-12
2.1257995735607672E-4     1.6226538869356562E-12
2.130063965884861E-4      1.6031644046015562E-12
2.1343283582089549E-4     1.583804032029636E-12
2.1385927505330487E-4     1.5645732792375444E-12
2.1428571428571422E-4     1.5454720777697608E-12
2.147121535181236E-4      1.5265004276262842E-12
2.1513859275053298E-4     1.5076583288071146E-12
2.155650319829424E-4      1.4889457813122532E-12
2.1599147121535174E-4     1.4703627851416986E-12
2.1641791044776113E-4     1.4519093402954517E-12
2.168443496801705E-4      1.4335858136882294E-12
2.172707889125799E-4      1.4153919873797844E-12
2.1769722814498927E-4     1.3973278613701168E-12
2.1812366737739865E-4     1.3793934356592267E-12
2.1855010660980803E-4     1.3615887102471144E-12
2.1897654584221744E-4     1.343913685133779E-12
2.1940298507462682E-4     1.3263683603192211E-12
2.1982942430703623E-4     1.308952958899874E-12
2.2025586353944558E-4     1.2916671133833522E-12
2.2068230277185494E-4     1.2745108237696551E-12
2.2110874200426437E-4     1.2574840900587832E-12
2.2153518123667375E-4     1.2405869122507366E-12
2.2196162046908313E-4     1.2238192903455148E-12
2.2238805970149251E-4     1.207181224343118E-12
2.228144989339019E-4      1.1906727929494685E-12
2.2324093816631128E-4     1.1742934791769572E-12
2.2366737739872063E-4     1.1580432830255828E-12
2.2409381663113E-4        1.1419222044953469E-12
2.245202558635394E-4      1.1259302435862487E-12
2.2494669509594877E-4     1.110067400298288E-12
2.2537313432835815E-4     1.0943336746314653E-12
2.2579957356076756E-4     1.0787290004677335E-12
2.2622601279317692E-4     1.0632527115005108E-12
2.2665245202558627E-4     1.0479048077297974E-12
2.270788912579957E-4      1.0326852891555933E-12
2.275053304904051E-4      1.0175941557778987E-12
2.2793176972281447E-4     1.0026314075967128E-12
2.2835820895522385E-4     9.877970446120363E-13
2.2878464818763323E-4     9.730908555824082E-13
2.292110874200426E-4      9.585120251732013E-13
2.29637526652452E-4       9.44060553384415E-13
2.3006396588486137E-4     9.2973644021605E-13
2.3049040511727075E-4     9.155396856681061E-13
2.3091684434968014E-4     9.01470289740583E-13
2.3134328358208952E-4     8.87528252433481E-13
2.3176972281449892E-4     8.737132172114504E-13
2.3219616204690828E-4     8.600242201124843E-13
2.3262260127931766E-4     8.464612611365833E-13
2.3304904051172707E-4     8.33024340283747E-13
2.3347547974413645E-4     8.197134575539757E-13
2.3390191897654586E-4     8.065286129472689E-13
2.3432835820895524E-4     7.934698064636271E-13
2.3475479744136462E-4     7.805365362289839E-13
2.3518123667377397E-4     7.677276901581027E-13
2.3560767590618333E-4     7.550432682509836E-13
2.3603411513859274E-4     7.424832705076267E-13
2.364605543710021E-4      7.30047696928032E-13
2.3688699360341147E-4     7.177365475121993E-13
2.3731343283582085E-4     7.055498222601289E-13
2.3773987206823026E-4     6.934868740333127E-13
2.381663113006396E-4      6.815464432274346E-13
2.38592750533049E-4       6.697285298424948E-13
2.390191897654584E-4      6.580331338784928E-13
2.3944562899786778E-4     6.464602553354294E-13
2.3987206823027716E-4     6.350098942133036E-13
2.4029850746268655E-4     6.236820505121162E-13
2.4072494669509595E-4     6.12475932018423E-13
2.4115138592750533E-4     6.013901323063995E-13
2.415778251599147E-4      5.904246513760457E-13
2.420042643923241E-4      5.795794892273617E-13
2.4243070362473348E-4     5.688546458603476E-13
2.4285714285714283E-4     5.58250121275003E-13
2.432835820895522E-4      5.477659154713281E-13
2.4371002132196162E-4     5.374010914605871E-13
2.44136460554371E-4       5.271540967814278E-13
2.445628997867804E-4      5.170249314338505E-13
2.4498933901918976E-4     5.070135954178549E-13
2.4541577825159915E-4     4.971200887334417E-13
2.458422174840085E-4      4.873444113806101E-13
2.462686567164179E-4      4.776865633593605E-13
2.466950959488273E-4      4.681454633101531E-13
2.4712153518123667E-4     4.587194136051337E-13
2.47547974413646E-4       4.4940841424430227E-13
2.4797441364605543E-4     4.4021246522765877E-13
2.4840085287846476E-4     4.3113156655520337E-13
2.4882729211087414E-4     4.221657182269357E-13
2.492537313432835E-4      4.1331492024285607E-13
2.496801705756929E-4      4.0457794737680455E-13
2.501066098081023E-4      3.959529577807625E-13
2.5053304904051166E-4     3.874399514547298E-13
2.5095948827292104E-4     3.790389283987064E-13
2.513859275053304E-4      3.707498886126926E-13
2.518123667377398E-4      3.6257283209668803E-13
2.522388059701492E-4      3.5450775885069294E-13
2.5266524520255857E-4     3.465533003811905E-13
2.5309168443496795E-4     3.387074716374977E-13
2.5351812366737733E-4     3.309702726196146E-13
2.5394456289978677E-4     3.2334170332754105E-13
2.543710021321961E-4      3.158217637612773E-13
2.5479744136460553E-4     3.08410453920823E-13
2.552238805970149E-4      3.0110777380617844E-13
2.556503198294243E-4      2.939122123443749E-13
2.560767590618336E-4      2.868216423659844E-13
2.56503198294243E-4       2.7983606387100683E-13
2.569296375266524E-4      2.7295547685944233E-13
2.5735607675906176E-4     2.66179881331291E-13
2.5778251599147114E-4     2.595092772865526E-13
2.582089552238805E-4      2.5294366472522725E-13
2.586353944562899E-4      2.4648139076671786E-13
2.590618336886993E-4      2.401201872664095E-13