% Model:              ModelMicPlate_Rh100um_hg10um_Refined_MaterialDefPolySilicon.mph
% Version:            COMSOL 6.3.0.335
% Date:               May 21 2025, 14:31
% Dimension:          1
% Nodes:              708
% Expressions:        1
% Description:        Line graph
% Arc length (m)          imag(w2)
0                         8.808358176292315E-14
4.2016806722688943E-7     8.808503877194579E-14
8.403361344537784E-7      8.808940774005055E-14
1.260504201680668E-6      8.809668866723737E-14
1.6806722689075569E-6     8.810688155350631E-14
2.1008403361344462E-6     8.811998639885735E-14
2.521008403361336E-6      8.813600320329046E-14
2.941176470588225E-6      8.815493196680567E-14
3.361344537815116E-6      8.817677379889464E-14
3.781512605042006E-6      8.820152638274327E-14
4.2016806722688975E-6     8.82291897183515E-14
4.621848739495788E-6      8.82597638057194E-14
5.0420168067226796E-6     8.829324864484693E-14
5.46218487394957E-6       8.832964423573411E-14
5.882352941176461E-6      8.836895057838091E-14
6.302521008403353E-6      8.84111682357837E-14
6.722689075630246E-6      8.845629429428864E-14
7.1428571428571385E-6     8.850432875389575E-14
7.563025210084031E-6      8.855527161460503E-14
7.983193277310924E-6      8.860912287641647E-14
8.403361344537817E-6      8.86658825393301E-14
8.823529411764708E-6      8.872555060334586E-14
9.2436974789916E-6        8.878812698043058E-14
9.66386554621849E-6       8.88536083257466E-14
1.0084033613445381E-5     8.892199463929387E-14
1.0504201680672271E-5     8.899328592107246E-14
1.0924369747899162E-5     8.906748217108231E-14
1.1344537815126054E-5     8.914458338932346E-14
1.1764705882352944E-5     8.922458957579587E-14
1.2184873949579835E-5     8.930750000129709E-14
1.2605042016806726E-5     8.939331097716731E-14
1.3025210084033616E-5     8.948202250340649E-14
1.3445378151260506E-5     8.957363458001467E-14
1.3865546218487399E-5     8.966814720699185E-14
1.4285714285714289E-5     8.9765560384338E-14
1.470588235294118E-5      8.986587411205312E-14
1.5126050420168068E-5     8.996908705594229E-14
1.5546218487394955E-5     9.007519528416166E-14
1.5966386554621844E-5     9.01841987967112E-14
1.638655462184873E-5      9.029609759359095E-14
1.6806722689075617E-5     9.04108916748009E-14
1.7226890756302507E-5     9.052858104034102E-14
1.7647058823529393E-5     9.064916569021135E-14
1.8067226890756286E-5     9.077264373412286E-14
1.8487394957983176E-5     9.0899011117339E-14
1.8907563025210073E-5     9.102826783985975E-14
1.9327731092436962E-5     9.116041390168518E-14
1.974789915966386E-5      9.129544930281524E-14
2.0168067226890752E-5     9.143337404324992E-14
2.0588235294117642E-5     9.157418812298926E-14
2.1008403361344535E-5     9.171788915957682E-14
2.1428571428571425E-5     9.186447311221875E-14
2.1848739495798315E-5     9.201393998091492E-14
2.2268907563025204E-5     9.216628976566546E-14
2.2689075630252094E-5     9.23215224664703E-14
2.3109243697478987E-5     9.247963808332945E-14
2.3529411764705877E-5     9.264063661624293E-14
2.394957983193277E-5      9.280451527077968E-14
2.436974789915966E-5      9.297127017128975E-14
2.478991596638655E-5      9.31409013177731E-14
2.521008403361344E-5      9.331340871022979E-14
2.5630252100840332E-5     9.348879234865977E-14
2.6050420168067226E-5     9.366705223306307E-14
2.6470588235294115E-5     9.384818836343966E-14
2.6890756302521005E-5     9.403219763002431E-14
2.7310924369747895E-5     9.421907648648535E-14
2.7731092436974788E-5     9.440882493282272E-14
2.8151260504201674E-5     9.460144296903647E-14
2.8571428571428567E-5     9.479693059512662E-14
2.899159663865546E-5      9.499528781109311E-14
2.941176470588235E-5      9.519651461693599E-14
2.983193277310924E-5      9.540060769975369E-14
3.025210084033613E-5      9.56075640190244E-14
3.067226890756302E-5      9.581738357474808E-14
3.109243697478991E-5      9.603006636692478E-14
3.1512605042016806E-5     9.62456123955545E-14
3.1932773109243696E-5     9.64640216606372E-14
3.2352941176470585E-5     9.66852941621729E-14
3.2773109243697475E-5     9.690942651125694E-14
3.3193277310924365E-5     9.713641636038741E-14
3.3613445378151255E-5     9.736626370956427E-14
3.4033613445378144E-5     9.759896855878756E-14
3.445378151260504E-5      9.783453090805726E-14
3.487394957983193E-5      9.80729507573734E-14
3.529411764705882E-5      9.831422810673593E-14
3.571428571428571E-5      9.855835963374167E-14
3.61344537815126E-5       9.88053438792682E-14
3.6554621848739496E-5     9.90551808433155E-14
3.697478991596638E-5      9.930787052588361E-14
3.7394957983193276E-5     9.95634129269725E-14
3.781512605042017E-5      9.982180804658217E-14
3.8235294117647055E-5     1.0008305588471263E-13
3.8655462184873945E-5     1.003471533412179E-13
3.907563025210084E-5      1.0061410004834703E-13
3.949579831932773E-5      1.0088389600609999E-13
3.991596638655462E-5      1.0115654121447683E-13
4.033613445378151E-5      1.0143203567347754E-13
4.075630252100841E-5      1.017103793831021E-13
4.11764705882353E-5       1.0199157234335052E-13
4.1596638655462194E-5     1.0227561184424193E-13
4.2016806722689084E-5     1.0256249881743083E-13
4.2436974789915967E-5     1.0285223326291711E-13
4.285714285714286E-5      1.0314481518070088E-13
4.327731092436975E-5      1.034402445707821E-13
4.369747899159664E-5      1.0373852143316076E-13
4.411764705882353E-5      1.0403964576783686E-13
4.453781512605042E-5      1.0434361543487734E-13
4.495798319327731E-5      1.0465043287480207E-13
4.53781512605042E-5       1.0496009808761098E-13
4.5798319327731085E-5     1.0527261107330415E-13
4.621848739495798E-5      1.0558797183188153E-13
4.6638655462184864E-5     1.0590618036334315E-13
4.7058823529411754E-5     1.0622723666768898E-13
4.747899159663865E-5      1.0655113936464573E-13
4.789915966386554E-5      1.0687789261198487E-13
4.831932773109242E-5      1.0720749640970632E-13
4.873949579831932E-5      1.0753995075781018E-13
4.915966386554621E-5      1.0787525565629642E-13
4.95798319327731E-5       1.0821341110516498E-13
4.999999999999999E-5      1.0855441710441593E-13
5.042016806722688E-5      1.0889827323113339E-13
5.0840336134453775E-5     1.0924498556331678E-13
5.1260504201680665E-5     1.0959455410096603E-13
5.1680672268907555E-5     1.0994697884408122E-13
5.210084033613445E-5      1.1030225979266233E-13
5.252100840336134E-5      1.106603969467093E-13
5.294117647058823E-5      1.1102139030622221E-13
5.336134453781512E-5      1.1138524060957422E-13
5.378151260504201E-5      1.1175195604736874E-13
5.420168067226891E-5      1.1212153661960573E-13
5.462184873949579E-5      1.1249398232628524E-13
5.5042016806722686E-5     1.1286929316740725E-13
5.546218487394958E-5      1.1324746914297177E-13
5.5882352941176466E-5     1.1362851025297878E-13
5.6302521008403355E-5     1.1401241860474687E-13
5.6722689075630245E-5     1.1439920467702235E-13
5.714285714285714E-5      1.147888684698051E-13
5.7563025210084025E-5     1.1518140998309523E-13
5.798319327731092E-5      1.1557682921689268E-13
5.840336134453782E-5      1.1597512617119747E-13
5.88235294117647E-5       1.163763008460096E-13
5.92436974789916E-5       1.1678035692602364E-13
5.966386554621848E-5      1.1718730732892618E-13
6.008403361344538E-5      1.1759715205471717E-13
6.050420168067226E-5      1.180098911033966E-13
6.0924369747899156E-5     1.1842552447496455E-13
6.134453781512605E-5      1.1884405216942092E-13
6.176470588235294E-5      1.1926547418676576E-13
6.218487394957983E-5      1.1968979599471736E-13
6.260504201680672E-5      1.201170330659459E-13
6.302521008403361E-5      1.2054718540045126E-13
6.34453781512605E-5       1.2098025299823354E-13
6.386554621848739E-5      1.214162358592927E-13
6.428571428571429E-5      1.2185513398362875E-13
6.470588235294117E-5      1.222969473712417E-13
6.512605042016805E-5      1.2274168347141196E-13
6.554621848739495E-5      1.2318936038025756E-13
6.596638655462185E-5      1.236399780977784E-13
6.638655462184873E-5      1.2409353662397456E-13
6.680672268907563E-5      1.2455003595884603E-13
6.722689075630252E-5      1.2500947610239277E-13
6.76470588235294E-5       1.2547185705461483E-13
6.806722689075629E-5      1.2593718843248242E-13
6.848739495798319E-5      1.2640549095984885E-13
6.890756302521008E-5      1.2687676463671403E-13
6.932773109243696E-5      1.2735100946307806E-13
6.974789915966386E-5      1.2782822543894092E-13
7.016806722689076E-5      1.2830841256430254E-13
7.058823529411764E-5      1.28791570839163E-13
7.100840336134452E-5      1.2927771221532622E-13
7.142857142857142E-5      1.2976685996280443E-13
7.184873949579832E-5      1.3025901408159758E-13
7.22689075630252E-5       1.3075417457170572E-13
7.26890756302521E-5       1.312523414331288E-13
7.310924369747899E-5      1.317535146658669E-13
7.352941176470588E-5      1.3225769426991994E-13
7.394957983193276E-5      1.327648946718833E-13
7.436974789915967E-5      1.332751414917604E-13
7.478991596638655E-5      1.337884347295511E-13
7.521008403361343E-5      1.3430477438525556E-13
7.563025210084034E-5      1.3482416045887368E-13
7.605042016806723E-5      1.353465929504055E-13
7.647058823529412E-5      1.35872071859851E-13
7.689075630252102E-5      1.3640061419101724E-13
7.73109243697479E-5       1.3693224756491254E-13
7.773109243697479E-5      1.3746697198153678E-13
7.815126050420167E-5      1.3800478744089004E-13
7.857142857142857E-5      1.3854569394297233E-13
7.899159663865546E-5      1.390896914877836E-13
7.941176470588235E-5      1.3963678007532384E-13
7.983193277310923E-5      1.4018697933594739E-13
8.025210084033613E-5      1.407403183406335E-13
8.067226890756302E-5      1.412967970893821E-13
8.10924369747899E-5       1.4185641558219334E-13
8.151260504201682E-5      1.4241917381906714E-13
8.19327731092437E-5       1.4298507180000347E-13
8.23529411764706E-5       1.4355410952500237E-13
8.277310924369749E-5      1.441263092333405E-13
8.319327731092437E-5      1.4470170061592172E-13
8.361344537815127E-5      1.4528028367274598E-13
8.403361344537815E-5      1.4586205840381335E-13
8.445378151260505E-5      1.4644702480912385E-13
8.487394957983195E-5      1.470351828886774E-13
8.529411764705883E-5      1.4762653264247404E-13
8.571428571428573E-5      1.4822109882674914E-13
8.613445378151261E-5      1.4881891053597653E-13
8.655462184873949E-5      1.4941996777015614E-13
8.697478991596639E-5      1.50024270529288E-13
8.739495798319329E-5      1.506318188133722E-13
8.781512605042018E-5      1.5124261262240858E-13
8.823529411764706E-5      1.5185665195639727E-13
8.865546218487395E-5      1.5247396387498387E-13
8.907563025210084E-5      1.530945751603442E-13
8.949579831932774E-5      1.537184858124781E-13
8.991596638655461E-5      1.5434569583138573E-13
9.033613445378152E-5      1.5497620521706704E-13
9.075630252100842E-5      1.5561001396952196E-13
9.11764705882353E-5       1.562471220887506E-13
9.15966386554622E-5       1.5688755862220582E-13
9.201680672268908E-5      1.5753134557425193E-13
9.243697478991596E-5      1.581784829448888E-13
9.285714285714286E-5      1.5882897073411662E-13
9.327731092436976E-5      1.594828089419353E-13
9.369747899159665E-5      1.601399975683448E-13
9.411764705882353E-5      1.6080053661334517E-13
9.453781512605042E-5      1.614644568062043E-13
9.495798319327731E-5      1.6213177175082648E-13
9.53781512605042E-5       1.628024814472116E-13
9.57983193277311E-5       1.6347658589535983E-13
9.621848739495799E-5      1.6415408509527108E-13
9.663865546218487E-5      1.6483497904694536E-13
9.705882352941177E-5      1.6551926775038267E-13
9.747899159663867E-5      1.6620698259278644E-13
9.789915966386555E-5      1.6689812499511735E-13
9.831932773109245E-5      1.675926949573752E-13
9.873949579831933E-5      1.6829069247956014E-13
9.915966386554623E-5      1.6899211756167218E-13
9.957983193277312E-5      1.6969697020371123E-13
1.0E-4                    1.7040525040567732E-13
1.004264392324094E-4      1.7112763488897463E-13
1.0085287846481877E-4     1.7185356546640676E-13
1.0127931769722815E-4     1.7258304213797372E-13
1.0170575692963754E-4     1.733160649036755E-13
1.0213219616204692E-4     1.7405263376351214E-13
1.025586353944563E-4      1.7479274871748355E-13
1.0298507462686569E-4     1.7553640976558982E-13
1.0341151385927508E-4     1.762836386171027E-13
1.0383795309168445E-4     1.7703440099681864E-13
1.0426439232409383E-4     1.7778869690473755E-13
1.0469083155650321E-4     1.7854652634085952E-13
1.0511727078891259E-4     1.7930788930518455E-13
1.0554371002132197E-4     1.8007278579771249E-13
1.0597014925373135E-4     1.8084121581844355E-13
1.0639658848614073E-4     1.816131940714823E-13
1.0682302771855012E-4     1.8238865809291004E-13
1.0724946695095948E-4     1.8316760788272674E-13
1.0767590618336888E-4     1.8395004344093246E-13
1.0810234541577824E-4     1.8473596476752723E-13
1.0852878464818763E-4     1.8552537186251088E-13
1.0895522388059701E-4     1.8631826472588362E-13
1.093816631130064E-4      1.871146441414959E-13
1.0980810234541578E-4     1.8791441889913988E-13
1.1023454157782515E-4     1.8871758899881552E-13
1.1066098081023454E-4     1.895241544405228E-13
1.1108742004264393E-4     1.9033411522426185E-13
1.115138592750533E-4      1.9114747135003248E-13
1.1194029850746269E-4     1.9196422281783488E-13
1.1236673773987208E-4     1.9278435186070856E-13
1.1279317697228145E-4     1.936077365966E-13
1.1321961620469083E-4     1.9443437702550919E-13
1.1364605543710021E-4     1.9526427314743613E-13
1.1407249466950959E-4     1.9609742496238092E-13
1.1449893390191897E-4     1.9693383247034343E-13
1.1492537313432836E-4     1.9777349567132372E-13
1.1535181236673775E-4     1.9861637470932424E-13
1.1577825159914712E-4     1.9946231546670933E-13
1.162046908315565E-4      2.0031131794347902E-13
1.1663113006396588E-4     2.0116338213963334E-13
1.1705756929637526E-4     2.020185080551723E-13
1.1748400852878464E-4     2.0287669569009578E-13
1.1791044776119402E-4     2.0373794504440394E-13
1.1833688699360342E-4     2.0460219117565178E-13
1.187633262260128E-4      2.0546924683148608E-13
1.1918976545842218E-4     2.0633911201190674E-13
1.1961620469083157E-4     2.0721178671691386E-13
1.2004264392324095E-4     2.0808727094650745E-13
1.2046908315565034E-4     2.0896556470068742E-13
1.2089552238805972E-4     2.0984666797945382E-13
1.2132196162046911E-4     2.1073048831720263E-13
1.2174840085287848E-4     2.1161680501310403E-13
1.2217484008528786E-4     2.1250561806715795E-13
1.2260127931769724E-4     2.1339692747936445E-13
1.2302771855010662E-4     2.1429073324972355E-13
1.23454157782516E-4       2.1518703537823515E-13
1.2388059701492538E-4     2.1608583386489937E-13
1.2430703624733477E-4     2.1698700686165986E-13
1.2473347547974415E-4     2.1789030042324232E-13
1.2515991471215353E-4     2.1879571454964664E-13
1.255863539445629E-4      2.1970324924087299E-13
1.260127931769723E-4      2.2061290449692132E-13
1.2643923240938167E-4     2.2152468031779146E-13
1.2686567164179105E-4     2.2243857670348365E-13
1.2729211087420043E-4     2.233544411182255E-13
1.2771855010660981E-4     2.242719870631013E-13
1.281449893390192E-4      2.2519121453811085E-13
1.2857142857142858E-4     2.2611212354325436E-13
1.2899786780383796E-4     2.270347140785318E-13
1.2942430703624734E-4     2.2795898614394305E-13
1.2985074626865672E-4     2.288849397394882E-13
1.302771855010661E-4      2.2981239086293315E-13
1.3070362473347548E-4     2.30741021610761E-13
1.3113006396588486E-4     2.3167083198297167E-13
1.3155650319829424E-4     2.32601821979565E-13
1.3198294243070362E-4     2.3353399160054134E-13
1.32409381663113E-4       2.344673408459004E-13
1.3283582089552239E-4     2.354018697156423E-13
1.3326226012793177E-4     2.363373624676884E-13
1.3368869936034115E-4     2.372734713668709E-13
1.3411513859275053E-4     2.3821019641318973E-13
1.345415778251599E-4      2.3914753760664495E-13
1.349680170575693E-4      2.400854949472366E-13
1.3539445628997867E-4     2.410240684349646E-13
1.3582089552238805E-4     2.41963258069829E-13
1.3624733475479743E-4     2.4290281658422877E-13
1.3667377398720682E-4     2.4384236837610785E-13
1.371002132196162E-4      2.44781913445466E-13
1.3752665245202558E-4     2.4572145179230345E-13
1.3795309168443496E-4     2.466609834166201E-13
1.3837953091684434E-4     2.476005083184159E-13
1.3880597014925372E-4     2.485400264976909E-13
1.392324093816631E-4      2.494792598232554E-13
1.3965884861407248E-4     2.50417807168427E-13
1.4008528784648186E-4     2.513556685332058E-13
1.4051172707889124E-4     2.5229284391759167E-13
1.4093816631130063E-4     2.532293333215849E-13
1.4136460554371E-4        2.541651367451851E-13
1.417910447761194E-4      2.551002541883925E-13
1.422174840085288E-4      2.560343777546239E-13
1.4264392324093815E-4     2.5696708347010025E-13
1.4307036247334753E-4     2.578983713348217E-13
1.4349680170575694E-4     2.588282413487881E-13
1.4392324093816635E-4     2.597566935119997E-13
1.443496801705757E-4      2.6068372782445615E-13
1.447761194029851E-4      2.616093442861578E-13
1.452025586353945E-4      2.625332067375669E-13
1.4562899786780387E-4     2.634548713509458E-13
1.4605543710021325E-4     2.643743381262945E-13
1.4648187633262263E-4     2.6529160706361316E-13
1.4690831556503201E-4     2.662066781629016E-13
1.473347547974414E-4      2.671195514241599E-13
1.4776119402985075E-4     2.680302268473881E-13
1.4818763326226013E-4     2.689383418936429E-13
1.486140724946695E-4      2.698434361572854E-13
1.490405117270789E-4      2.707455096383156E-13
1.4946695095948827E-4     2.716445623367334E-13
1.4989339019189766E-4     2.7254059425253904E-13
1.5031982942430704E-4     2.734336053857323E-13
1.5074626865671642E-4     2.743235957363133E-13
1.511727078891258E-4      2.752101786246603E-13
1.5159914712153518E-4     2.76092880597564E-13
1.5202558635394456E-4     2.769717016550242E-13
1.5245202558635394E-4     2.778466417970411E-13
1.5287846481876332E-4     2.7871770102361463E-13
1.533049040511727E-4      2.795848793347447E-13
1.5373134328358208E-4     2.804481767304315E-13
1.5415778251599147E-4     2.8130718496031877E-13
1.5458422174840087E-4     2.8216142127597643E-13
1.5501066098081023E-4     2.830108856774045E-13
1.5543710021321964E-4     2.83855578164603E-13
1.5586353944562902E-4     2.846954987375719E-13
1.5628997867803837E-4     2.855306473963111E-13
1.5671641791044778E-4     2.8636102414082076E-13
1.5714285714285716E-4     2.8718620202084857E-13
1.5756929637526654E-4     2.8800569294055423E-13
1.5799573560767592E-4     2.8881949689993764E-13
1.584221748400853E-4      2.8962761389899893E-13
1.5884861407249468E-4     2.90430043937738E-13
1.5927505330490407E-4     2.9122678701615485E-13
1.5970149253731345E-4     2.920178431342496E-13
1.6012793176972283E-4     2.9280276978753627E-13
1.605543710021322E-4      2.935810776431835E-13
1.609808102345416E-4      2.943527667011912E-13
1.6140724946695097E-4     2.9511783696155946E-13
1.6183368869936035E-4     2.9587628842428833E-13
1.6226012793176973E-4     2.966281210893776E-13
1.6268656716417911E-4     2.973733349568275E-13
1.631130063965885E-4      2.9811147536126646E-13
1.6353944562899788E-4     2.9884205597522815E-13
1.6396588486140726E-4     2.9956507679871236E-13
1.6439232409381664E-4     3.002805378317191E-13
1.6481876332622602E-4     3.009884390742486E-13
1.652452025586354E-4      3.016887805263006E-13
1.6567164179104478E-4     3.023815621878753E-13
1.6609808102345416E-4     3.030663208425728E-13
1.6652452025586354E-4     3.0374257751280925E-13
1.6695095948827292E-4     3.044103321985844E-13
1.673773987206823E-4      3.0506958489989845E-13
1.6780383795309169E-4     3.0572033561675145E-13
1.6823027718550107E-4     3.0636258434914313E-13
1.6865671641791045E-4     3.0699633109707373E-13
1.6908315565031983E-4     3.076211078967601E-13
1.695095948827292E-4      3.082364475312848E-13
1.699360341151386E-4      3.0884235000064767E-13
1.7036247334754797E-4     3.094388153048489E-13
1.7078891257995735E-4     3.100258434438885E-13
1.7121535181236673E-4     3.106034344177663E-13
1.7164179104477612E-4     3.111715882264824E-13
1.720682302771855E-4      3.1172983611695264E-13
1.7249466950959488E-4     3.1227772708897916E-13
1.7292110874200426E-4     3.1281526114256184E-13
1.7334754797441364E-4     3.133424382777007E-13
1.7377398720682302E-4     3.138592584943959E-13
1.742004264392324E-4      3.143657217926472E-13
1.7462686567164178E-4     3.148618281724548E-13
1.7505330490405116E-4     3.153471121814636E-13
1.7547974413646055E-4     3.158211434979139E-13
1.7590618336886993E-4     3.162839221218058E-13
1.763326226012793E-4      3.1673544805313917E-13
1.767590618336887E-4      3.1717572129191413E-13
1.7718550106609807E-4     3.1760474183813054E-13
1.7761194029850745E-4     3.180225096917886E-13
1.7803837953091683E-4     3.184285668941402E-13
1.784648187633262E-4      3.188225082412968E-13
1.788912579957356E-4      3.192043337332584E-13
1.7931769722814497E-4     3.19574043370025E-13
1.7974413646055436E-4     3.199316371515968E-13
1.8017057569296374E-4     3.202771150779733E-13
1.8059701492537312E-4     3.20610477149155E-13
1.810234541577825E-4      3.2093127715807565E-13
1.8144989339019188E-4     3.212391394122495E-13
1.8187633262260126E-4     3.2153406391167653E-13
1.8230277185501064E-4     3.218160506563567E-13
1.8272921108742002E-4     3.2208509964629026E-13
1.831556503198294E-4      3.2234121088147675E-13
1.8358208955223879E-4     3.2258438436191665E-13
1.8400852878464817E-4     3.228141899339819E-13
1.8443496801705755E-4     3.23030285727445E-13
1.8486140724946693E-4     3.2323267174230613E-13
1.852878464818763E-4      3.234213479785653E-13
1.857142857142857E-4      3.2359631443622246E-13
1.8614072494669507E-4     3.2375757111527756E-13
1.8656716417910445E-4     3.239051180157307E-13
1.8699360341151383E-4     3.2403854534829724E-13
1.8742004264392321E-4     3.2415754927131E-13
1.878464818763326E-4      3.2426212978476894E-13
1.8827292110874198E-4     3.243522868886742E-13
1.8869936034115136E-4     3.244280205830258E-13
1.8912579957356074E-4     3.244893308678235E-13
1.8955223880597012E-4     3.2453621774306753E-13
1.899786780383795E-4      3.2456829607675695E-13
1.904051172707889E-4      3.2458530412797224E-13
1.9083155650319826E-4     3.2458724189671315E-13
1.9125799573560764E-4     3.245741093829799E-13
1.9168443496801702E-4     3.2454590658677245E-13
1.9211087420042643E-4     3.2450263350809067E-13
1.9253731343283581E-4     3.2444429014693467E-13
1.929637526652452E-4      3.243705202740416E-13
1.9339019189765455E-4     3.242811081633251E-13
1.9381663113006393E-4     3.2417605381478506E-13
1.942430703624733E-4      3.240553572284215E-13
1.9466950959488272E-4     3.2391901840423465E-13
1.9509594882729207E-4     3.2376703734222423E-13
1.9552238805970145E-4     3.2359941404239035E-13
1.9594882729211084E-4     3.2341582534932797E-13
1.9637526652452024E-4     3.232161052826717E-13
1.968017057569296E-4      3.2300025384242134E-13
1.97228144989339E-4       3.227682710285772E-13
1.9765458422174841E-4     3.2252015684113915E-13
1.980810234541578E-4      3.2225591128010706E-13
1.9850746268656718E-4     3.219755343454811E-13
1.9893390191897656E-4     3.2167874002362665E-13
1.9936034115138594E-4     3.213654156070275E-13
1.9978678038379532E-4     3.2103556109568373E-13
2.002132196162047E-4      3.2068917648959537E-13
2.0063965884861408E-4     3.2032626178876253E-13
2.0106609808102346E-4     3.1994681699318485E-13
2.0149253731343284E-4     3.195508421028627E-13
2.0191897654584222E-4     3.191380921866486E-13
2.023454157782516E-4      3.187085111104851E-13
2.0277185501066093E-4     3.1826209887437223E-13
2.0319829424307034E-4     3.177988554783099E-13
2.0362473347547972E-4     3.1731878092229835E-13
2.0405117270788908E-4     3.1682187520633726E-13
2.0447761194029846E-4     3.163081383304268E-13
2.0490405117270784E-4     3.157773702325931E-13
2.0533049040511725E-4     3.152295744097089E-13
2.057569296375266E-4      3.146647508617743E-13
2.06183368869936E-4       3.140828995887893E-13
2.0660980810234542E-4     3.1348402059075393E-13
2.070362473347548E-4      3.128681138676681E-13
2.0746268656716418E-4     3.122351794195319E-13
2.0788912579957356E-4     3.1158506566447497E-13
2.0831556503198294E-4     3.1091783852558775E-13
2.087420042643923E-4      3.1023349800287034E-13
2.091684434968017E-4      3.0953204409632267E-13
2.0959488272921106E-4     3.0881347680594486E-13
2.1002132196162044E-4     3.0807779613173675E-13
2.1044776119402982E-4     3.073250020736985E-13
2.108742004264392E-4      3.0655499494309565E-13
2.1130063965884858E-4     3.0576790560831057E-13
2.1172707889125793E-4     3.049637340693433E-13
2.1215351812366734E-4     3.0414248032619377E-13
2.1257995735607672E-4     3.0330414437886214E-13
2.130063965884861E-4      3.024487262273482E-13
2.1343283582089549E-4     3.015762258716521E-13
2.1385927505330487E-4     3.0068659871030437E-13
2.1428571428571422E-4     2.9978004278761583E-13
2.147121535181236E-4      2.988565581035866E-13
2.1513859275053298E-4     2.979161446582166E-13
2.155650319829424E-4      2.9695880245150595E-13
2.1599147121535174E-4     2.9598453148345447E-13
2.1641791044776113E-4     2.949933317540623E-13
2.168443496801705E-4      2.939852167065405E-13
2.172707889125799E-4      2.9296045349249095E-13
2.1769722814498927E-4     2.919190421119137E-13
2.1812366737739865E-4     2.9086098256480873E-13
2.1855010660980803E-4     2.8978627485117604E-13
2.1897654584221744E-4     2.886949189710156E-13
2.1940298507462682E-4     2.875869149243275E-13
2.1982942430703623E-4     2.8646233690260365E-13
2.2025586353944558E-4     2.853215227894761E-13
2.2068230277185494E-4     2.8416447258494475E-13
2.2110874200426437E-4     2.8299118628900967E-13
2.2153518123667375E-4     2.8180166390167085E-13
2.2196162046908313E-4     2.8059590542292823E-13
2.2238805970149251E-4     2.7937391085278183E-13
2.228144989339019E-4      2.781358175667573E-13
2.2324093816631128E-4     2.76882035492728E-13
2.2366737739872063E-4     2.7561256463069396E-13
2.2409381663113E-4        2.7432740498065517E-13
2.245202558635394E-4      2.730265565426117E-13
2.2494669509594877E-4     2.717100193165634E-13
2.2537313432835815E-4     2.7037779330251043E-13
2.2579957356076756E-4     2.690300812149071E-13
2.2622601279317692E-4     2.6766736602359493E-13
2.2665245202558627E-4     2.6628964772857397E-13
2.270788912579957E-4      2.648969263298443E-13
2.275053304904051E-4      2.634892018274058E-13
2.2793176972281447E-4     2.620664742212585E-13
2.2835820895522385E-4     2.606287435114024E-13
2.2878464818763323E-4     2.5917627961593E-13
2.292110874200426E-4      2.577096392281582E-13
2.29637526652452E-4       2.5622882234808696E-13
2.3006396588486137E-4     2.547338289757165E-13
2.3049040511727075E-4     2.532246591110466E-13
2.3091684434968014E-4     2.517013127540773E-13
2.3134328358208952E-4     2.501637899048087E-13
2.3176972281449892E-4     2.4861242925403754E-13
2.3219616204690828E-4     2.470478615855405E-13
2.3262260127931766E-4     2.454700868993173E-13
2.3304904051172707E-4     2.4387910519536825E-13
2.3347547974413645E-4     2.4227491647369326E-13
2.3390191897654586E-4     2.406575207342922E-13
2.3432835820895524E-4     2.390269179771652E-13
2.3475479744136462E-4     2.373835169269567E-13
2.3518123667377397E-4     2.3572802252155344E-13
2.3560767590618333E-4     2.340604347609554E-13
2.3603411513859274E-4     2.3238075364516246E-13
2.364605543710021E-4      2.3068897917417487E-13
2.3688699360341147E-4     2.289851113479924E-13
2.3731343283582085E-4     2.2726915016661519E-13
2.3773987206823026E-4     2.2554157534592231E-13
2.381663113006396E-4      2.2380316573894802E-13
2.38592750533049E-4       2.2205392134569235E-13
2.390191897654584E-4      2.2029384216615523E-13
2.3944562899786778E-4     2.1852292820033678E-13
2.3987206823027716E-4     2.1674117944823684E-13
2.4029850746268655E-4     2.1494859590985555E-13
2.4072494669509595E-4     2.1314572894332054E-13
2.4115138592750533E-4     2.113334307895018E-13
2.415778251599147E-4      2.095117014483994E-13
2.420042643923241E-4      2.0768054092001327E-13
2.4243070362473348E-4     2.0583994920434346E-13
2.4285714285714283E-4     2.0398992630138987E-13
2.432835820895522E-4      2.0213047221115263E-13
2.4371002132196162E-4     2.002622102807238E-13
2.44136460554371E-4       1.9838606533634567E-13
2.445628997867804E-4      1.9650203737801826E-13
2.4498933901918976E-4     1.9461012640574154E-13
2.4541577825159915E-4     1.9271033241951553E-13
2.458422174840085E-4      1.908026554193402E-13
2.462686567164179E-4      1.8888709540521562E-13
2.466950959488273E-4      1.8696434776163117E-13
2.4712153518123667E-4     1.8503540883785955E-13
2.47547974413646E-4       1.8310027863390087E-13
2.4797441364605543E-4     1.8115895714975504E-13
2.4840085287846476E-4     1.7921144438542218E-13
2.4882729211087414E-4     1.7725774034090214E-13
2.492537313432835E-4      1.7529784501619505E-13
2.496801705756929E-4      1.7333252559218142E-13
2.501066098081023E-4      1.7136284863780927E-13
2.5053304904051166E-4     1.6938881415307852E-13
2.5095948827292104E-4     1.6741042213798927E-13
2.513859275053304E-4      1.654276725925415E-13
2.518123667377398E-4      1.634405655167351E-13
2.522388059701492E-4      1.614491009105702E-13
2.5266524520255857E-4     1.5945411722732015E-13
2.5309168443496795E-4     1.5745674973644496E-13
2.5351812366737733E-4     1.5545699843794455E-13
2.5394456289978677E-4     1.5345486333181904E-13
2.543710021321961E-4      1.5145034441806838E-13
2.5479744136460553E-4     1.4944344169669244E-13
2.552238805970149E-4      1.4743415516769143E-13
2.556503198294243E-4      1.4542339376694235E-13
2.560767590618336E-4      1.4341235974984943E-13
2.56503198294243E-4       1.4140105311641256E-13
2.569296375266524E-4      1.3938947386663182E-13
2.5735607675906176E-4     1.3737762200050727E-13
2.5778251599147114E-4     1.3536549751803878E-13
2.582089552238805E-4      1.3335310041922644E-13
2.586353944562899E-4      1.3134140908292813E-13
2.590618336886993E-4      1.2933169086765938E-13