% Model:              PLacek_MembTVNJ_ArticleDims_Rh100um_hg10um_To2MHz_PHedit.mph
% Version:            COMSOL 6.3.0.335
% Date:               May 22 2025, 12:28
% Dimension:          1
% Nodes:              1801
% Expressions:        1
% Description:        Line graph
% Arc length (m)          imag(xi)
0                         2.8072863381434553E-11
1.6835192320072636E-7     2.807285999034305E-11
3.367038464014527E-7      2.807284981714362E-11
5.050557696021791E-7      2.807283286183627E-11
6.734076928029054E-7      2.8072809124421E-11
8.417596160036319E-7      2.8072778604897815E-11
1.0101115392043582E-6     2.8072741303266703E-11
1.1801802473622774E-6     2.8072696734156564E-11
1.3502489555201964E-6     2.8072645243972658E-11
1.5203176636781154E-6     2.8072586832714993E-11
1.6903863718360344E-6     2.8072521500383577E-11
1.8604550799939534E-6     2.8072449246978403E-11
2.0305237881518723E-6     2.8072370072499477E-11
2.200592664946635E-6      2.8072283976050872E-11
2.370661541741397E-6      2.80721909586363E-11
2.5407304185361593E-6     2.8072091020255768E-11
2.710799295330922E-6      2.807198416090927E-11
2.880868172125684E-6      2.8071870380596815E-11
3.0509370489204466E-6     2.8071749679318393E-11
3.2210059257152087E-6     2.8071622056636988E-11
3.3910748025099717E-6     2.8071487513208807E-11
3.5611436793047335E-6     2.8071346049033853E-11
3.731212556099496E-6      2.8071197664112132E-11
3.901281432894258E-6      2.8071042358443642E-11
4.07135030968902E-6       2.8070880132028382E-11
4.2414191864837825E-6     2.807071098443815E-11
4.411488063278545E-6      2.8070534916313716E-11
4.581556940073307E-6      2.8070351927655096E-11
4.751625816868069E-6      2.8070162018462286E-11
4.921694693662831E-6      2.806996518873528E-11
5.091763570457593E-6      2.8069761438474087E-11
5.261832447252356E-6      2.8069550767649954E-11
5.4319013240471185E-6     2.806933317644856E-11
5.601970200841881E-6      2.80691086648699E-11
5.772039077636643E-6      2.8068877232913976E-11
5.942107954431407E-6      2.806863888058079E-11
6.112176831226169E-6      2.8068393607870342E-11
6.282245708020931E-6      2.8068141414860693E-11
6.452314584815693E-6      2.8067882301571374E-11
6.622383461610455E-6      2.8067616268002363E-11
6.7924523384052175E-6     2.8067343314153672E-11
6.96252121519998E-6       2.8067063440025303E-11
7.132590091994742E-6      2.8066776645617253E-11
7.302658968789505E-6      2.8066482931027127E-11
7.472727845584267E-6      2.8066182296181918E-11
7.642796722379028E-6      2.806587474108161E-11
7.812865599173792E-6      2.8065560265726216E-11
7.982934475968554E-6      2.8065238870115736E-11
8.153003352763316E-6      2.8064910554250164E-11
8.323072229558079E-6      2.806457531824246E-11
8.493141106352842E-6      2.806423316197733E-11
8.663209983147605E-6      2.8063884085454776E-11
8.833278859942367E-6      2.80635280886748E-11
9.003347736737129E-6      2.8063165171637404E-11
9.173416613531891E-6      2.806279533434259E-11
9.343485490326653E-6      2.806241857694876E-11
9.513554367121415E-6      2.8062034899302935E-11
9.683623243916178E-6      2.8061644301405115E-11
9.853692120710938E-6      2.80612467832553E-11
1.00237609975057E-5       2.806084234485349E-11
1.0193829874300462E-5     2.8060430986199685E-11
1.0363898751095225E-5     2.806001270749321E-11
1.0533967627889988E-5     2.8059587508552345E-11
1.070403650468475E-5      2.8059155389377077E-11
1.0874105381479513E-5     2.805871634996741E-11
1.1044174258274277E-5     2.8058270390323348E-11
1.1214243135069039E-5     2.8057817510444885E-11
1.1384312011863803E-5     2.8057357710553213E-11
1.1554380888658565E-5     2.8056890990450177E-11
1.1724449765453327E-5     2.8056417350135796E-11
1.1894518642248089E-5     2.805593678961006E-11
1.2064587519042851E-5     2.805544930887297E-11
1.2234656395837613E-5     2.8054954907924533E-11
1.2404725272632376E-5     2.805445358699523E-11
1.257479414942714E-5      2.805394534587944E-11
1.27448630262219E-5       2.8053430184577155E-11
1.2914931903016664E-5     2.8052908103088383E-11
1.3085000779811424E-5     2.8052379101413125E-11
1.3255069656606186E-5     2.8051843179551378E-11
1.3425138533400948E-5     2.805130033773989E-11
1.3595207410195712E-5     2.8050750575768878E-11
1.3765276286990473E-5     2.8050193893638353E-11
1.3935345163785237E-5     2.8049630291348304E-11
1.4105414040579997E-5     2.8049059768898742E-11
1.427548291737476E-5      2.8048482326289663E-11
1.4445551794169521E-5     2.8047897963760682E-11
1.4615620670964285E-5     2.8047306681101475E-11
1.4785689547759046E-5     2.8046708478312047E-11
1.495575842455381E-5      2.8046103355392394E-11
1.5125827301348572E-5     2.804549131234252E-11
1.5295896178143334E-5     2.804487234916242E-11
1.5465965054938098E-5     2.8044246466088138E-11
1.5636033931732858E-5     2.8043613662912846E-11
1.580610280852762E-5      2.8042973939636552E-11
1.5976171685322383E-5     2.8042327296259257E-11
1.6146240562117146E-5     2.8041673732780962E-11
1.6316309438911907E-5     2.8041013249201663E-11
1.648637831570667E-5      2.8040345845746523E-11
1.665644719250143E-5      2.8039671522215362E-11
1.6826516069296195E-5     2.8038990278608175E-11
1.6996584946090956E-5     2.8038302114924962E-11
1.716665382288572E-5      2.803760703116573E-11
1.733672269968048E-5      2.8036905027330478E-11
1.7506791576475244E-5     2.8036196103631396E-11
1.7676860453270008E-5     2.8035480259873038E-11
1.7846929330064768E-5     2.8034757496055407E-11
1.8016998206859532E-5     2.803402781217851E-11
1.8187067083654292E-5     2.8033291208242343E-11
1.8357135960449056E-5     2.8032547684246907E-11
1.852720483724382E-5      2.803179724037398E-11
1.8697273714038584E-5     2.8031039876436854E-11
1.8867342590833344E-5     2.8030275592435537E-11
1.9037411467628108E-5     2.8029504388370022E-11
1.9207480344422872E-5     2.8028726264240307E-11
1.9377549221217633E-5     2.80279412200464E-11
1.9547618098012396E-5     2.8027149255949063E-11
1.9717686974807157E-5     2.8026350371763258E-11
1.9887755851601917E-5     2.8025544567488993E-11
2.005782472839668E-5      2.8024731843126265E-11
2.0227893605191438E-5     2.802391219867508E-11
2.0397962481986202E-5     2.802308563413543E-11
2.0568031358780966E-5     2.8022252149647233E-11
2.073810023557573E-5      2.8021411745023985E-11
2.090816911237049E-5      2.8020564420265686E-11
2.1078237989165254E-5     2.801971017537233E-11
2.1248306865960018E-5     2.8018849010343924E-11
2.141837574275478E-5      2.8017980925180468E-11
2.1588444619549542E-5     2.8017105920003506E-11
2.1758513496344303E-5     2.8016223994621486E-11
2.1928582373139063E-5     2.8015335149034413E-11
2.2098651249933827E-5     2.801443938324229E-11
2.2268720126728584E-5     2.8013536697245115E-11
2.2438789003523348E-5     2.8012627091042888E-11
2.2608857880318112E-5     2.8011710564741033E-11
2.2778926757112876E-5     2.8010787118138986E-11
2.2948995633907636E-5     2.8009856751236737E-11
2.3119064510702397E-5     2.8008919464034286E-11
2.3289133387497164E-5     2.8007975256531646E-11
2.3459202264291924E-5     2.80070241287288E-11
2.3629271141086688E-5     2.8006066080713117E-11
2.379934001788145E-5      2.800510111227093E-11
2.396940889467621E-5      2.8004129223402238E-11
2.4139477771470973E-5     2.8003150414107048E-11
2.4309546648265737E-5     2.8002164684385356E-11
2.4479615525060497E-5     2.8001172034237165E-11
2.464968440185526E-5      2.8000172463732434E-11
2.481975327865002E-5      2.7999165972641147E-11
2.4989822155444785E-5     2.7998152560963295E-11
2.515989103223955E-5      2.7997132228698885E-11
2.532995990903431E-5      2.7996104975847917E-11
2.5500028785829074E-5     2.799507080241039E-11
2.5670097662623834E-5     2.7994029708436707E-11
2.5840166539418598E-5     2.7992981693678082E-11
2.6010235416213362E-5     2.7991926758134505E-11
2.6180304293008122E-5     2.799086490180598E-11
2.6350373169802883E-5     2.7989796124692515E-11
2.6520442046597647E-5     2.79887204267941E-11
2.669051092339241E-5      2.7987637808137666E-11
2.686057980018717E-5      2.7986548268453405E-11
2.703064867698193E-5      2.7985451807741318E-11
2.7200717553776692E-5     2.7984348426001407E-11
2.7370786430571456E-5     2.798323812323367E-11
2.7540855307366216E-5     2.7982120899438115E-11
2.771092418416098E-5      2.7980996754618684E-11
2.7880993060955744E-5     2.7979865688481678E-11
2.8051061937750504E-5     2.7978727701027092E-11
2.8221130814545265E-5     2.7977582792254927E-11
2.839119969134003E-5      2.797643096216519E-11
2.8561268568134793E-5     2.797527221075788E-11
2.8731337444929556E-5     2.797410653800993E-11
2.890140632172432E-5      2.797293394360103E-11
2.907147519851908E-5      2.797175442753118E-11
2.9241544075313845E-5     2.7970567989800378E-11
2.9411612952108605E-5     2.796937463040863E-11
2.958168182890337E-5      2.796817434935593E-11
2.975175070569813E-5      2.7966967146591874E-11
2.9921819582492897E-5     2.7965753021766336E-11
3.0091888459287654E-5     2.7964531974879325E-11
3.0261957336082418E-5     2.7963304005930834E-11
3.0432026212877178E-5     2.7962069114920876E-11
3.060209508967194E-5      2.796082730184944E-11
3.07721639664667E-5       2.7959578566643068E-11
3.0942232843261466E-5     2.7958322908916497E-11
3.111230172005623E-5      2.795706032866974E-11
3.1282370596850994E-5     2.7955790825902786E-11
3.145243947364575E-5      2.795451440061564E-11
3.1622508350440515E-5     2.79532310528083E-11
3.179257722723528E-5      2.7951940782367838E-11
3.196264610403004E-5      2.7950643588870344E-11
3.21327149808248E-5       2.7949339472315814E-11
3.2302783857619563E-5     2.7948028432704256E-11
3.247285273441433E-5      2.7946710470035662E-11
3.264292161120909E-5      2.794538558431004E-11
3.2812990488003855E-5     2.7944053775381654E-11
3.298305936479862E-5      2.7942715042783726E-11
3.315312824159338E-5      2.7941369386516247E-11
3.332319711838814E-5      2.7940016806579226E-11
3.3493265995182904E-5     2.793865730297266E-11
3.366333487197767E-5      2.7937290875696544E-11
3.383340374877243E-5      2.793591752456519E-11
3.400347262556719E-5      2.7934537249065158E-11
3.417354150236195E-5      2.7933150049196434E-11
3.434361037915671E-5      2.7931755924959028E-11
3.4513679255951466E-5     2.793035487635293E-11
3.468374813274623E-5      2.7928946903378157E-11
3.4853817009540994E-5     2.7927532005808848E-11
3.502388588633576E-5      2.7926110183080548E-11
3.519395476313052E-5      2.7924681435193236E-11
3.5364023639925286E-5     2.7923245762146928E-11
3.553409251672005E-5      2.7921803163941626E-11
3.5704161393514813E-5     2.7920353640577322E-11
3.587423027030958E-5      2.7918897191782305E-11
3.604429914710434E-5      2.7917433816936327E-11
3.6214368023899105E-5     2.7915963516039373E-11
3.638443690069387E-5      2.7914486289091454E-11
3.655450577748863E-5      2.791300213609257E-11
3.672457465428339E-5      2.7911511057042718E-11
3.6894643531078154E-5     2.791001305162223E-11
3.706471240787292E-5      2.790850811915048E-11
3.7234781284667675E-5     2.7906996259627478E-11
3.740485016146244E-5      2.790547747305323E-11
3.7574919038257195E-5     2.7903951759427723E-11
3.774498791505196E-5      2.7902419118750966E-11
3.791505679184672E-5      2.7900879550653738E-11
3.808512566864148E-5      2.789933305439144E-11
3.8255194545436244E-5     2.7897779629964065E-11
3.842526342223101E-5      2.789621927737162E-11
3.8595332299025765E-5     2.78946519966141E-11
3.876540117582053E-5      2.7893077787691513E-11
3.893547005261529E-5      2.7891496650179954E-11
3.910553892941006E-5      2.7889908583265722E-11
3.927560780620482E-5      2.7888313586948824E-11
3.9445676682999584E-5     2.7886711661229258E-11
3.961574555979435E-5      2.788510280610703E-11
3.978581443658911E-5      2.7883487021582132E-11
3.995588331338387E-5      2.788186430716865E-11
4.012595219017863E-5      2.788023466197622E-11
4.02960210669734E-5       2.787859808600483E-11
4.0466089943768154E-5     2.787695457925449E-11
4.063615882056292E-5      2.78753041417252E-11
4.0806227697357675E-5     2.787364677341695E-11
4.097629657415244E-5      2.7871982473774032E-11
4.11463654509472E-5       2.7870311241821517E-11
4.1316434327741966E-5     2.7868633077559407E-11
4.148650320453673E-5      2.7866947980987702E-11
4.165657208133149E-5      2.7865255952106405E-11
4.182664095812625E-5      2.7863556990915514E-11
4.1996709834921015E-5     2.786185109678227E-11
4.216677871171578E-5      2.7860138268639855E-11
4.233684758851054E-5      2.785841850648827E-11
4.2506916465305307E-5     2.785669181032751E-11
4.267698534210007E-5      2.785495818015759E-11
4.2847054218894834E-5     2.785321761597849E-11
4.30171230956896E-5       2.7851470117075304E-11
4.3187191972484355E-5     2.784971568228206E-11
4.335726084927912E-5      2.7847954311598757E-11
4.3527329726073876E-5     2.7846186005025395E-11
4.369739860286864E-5      2.7844410762561978E-11
4.38674674796634E-5       2.7842628584208498E-11
4.403753635645816E-5      2.7840839469165302E-11
4.4207605233252925E-5     2.7839043416157562E-11
4.437767411004769E-5      2.7837240425185292E-11
4.454774298684245E-5      2.7835430496248484E-11
4.471781186363721E-5      2.783361362934714E-11
4.4887880740431973E-5     2.7831789824481262E-11
4.505794961722674E-5      2.7829959080755034E-11
4.52280184940215E-5       2.7828121396776833E-11
4.539808737081626E-5      2.7826276772546646E-11
4.556815624761102E-5      2.782442520806449E-11
4.5738225124405786E-5     2.7822566703330358E-11
4.590829400120055E-5      2.7820701258344252E-11
4.6078362877995314E-5     2.7818828872103702E-11
4.624843175479008E-5      2.781694954310031E-11
4.641850063158484E-5      2.781506327133408E-11
4.65885695083796E-5       2.7813170056805016E-11
4.675863838517436E-5      2.7811269899513115E-11
4.6928707261969126E-5     2.780936279945838E-11
4.709877613876389E-5      2.7807448755595584E-11
4.7268845015558654E-5     2.7805527766281468E-11
4.743891389235341E-5      2.7803599831516044E-11
4.7608982769148175E-5     2.7801664951299304E-11
4.777905164594294E-5      2.7799723125631253E-11
4.79491205227377E-5       2.779777435451189E-11
4.8119189399532466E-5     2.779581863671888E-11
4.828925827632723E-5      2.7793855970457226E-11
4.845932715312199E-5      2.779188635572693E-11
4.8629396029916744E-5     2.7789909792527985E-11
4.8799464906711515E-5     2.77879262808604E-11
4.896953378350627E-5      2.778593582072417E-11
4.9139602660301036E-5     2.7783938410783083E-11
4.93096715370958E-5       2.778193404907962E-11
4.947974041389056E-5      2.7779922735613777E-11
4.9649809290685314E-5     2.7777904470385556E-11
4.981987816748008E-5      2.777587925339496E-11
4.998994704427484E-5      2.7773847084641986E-11
5.0160015921069605E-5     2.7771807962656034E-11
5.033008479786437E-5      2.7769761885303708E-11
5.050015367465913E-5      2.7767708852585016E-11
5.067022255145389E-5      2.7765648864499958E-11
5.0840291428248654E-5     2.7763581921048534E-11
5.101036030504342E-5      2.7761508022230742E-11
5.1180429181838175E-5     2.7759427166434402E-11
5.135049805863294E-5      2.775733935133922E-11
5.15205669354277E-5       2.7755244576945185E-11
5.169063581222245E-5      2.7753142843252304E-11
5.1860704689017224E-5     2.775103415026058E-11
5.203077356581198E-5      2.774891849797001E-11
5.2200842442606745E-5     2.7746795884614925E-11
5.237091131940151E-5      2.774466630767127E-11
5.254098019619627E-5      2.7742529767139044E-11
5.2711049072991036E-5     2.7740386263018253E-11
5.28811179497858E-5       2.7738235795308893E-11
5.3051186826580564E-5     2.7736078364010962E-11
5.322125570337533E-5      2.773391396719199E-11
5.339132458017009E-5      2.773174260210636E-11
5.3561393456964855E-5     2.7729564268754052E-11
5.373146233375962E-5      2.7727378967135077E-11
5.390153121055438E-5      2.7725186697249438E-11
5.407160008734914E-5      2.772298745909713E-11
5.4241668964143904E-5     2.7720781250566686E-11
5.441173784093867E-5      2.771856806867227E-11
5.4581806717733425E-5     2.7716347913413898E-11
5.475187559452819E-5      2.7714120784791565E-11
5.492194447132294E-5      2.7711886682805275E-11
5.50920133481177E-5       2.770964560745502E-11
5.526208222491247E-5      2.7707397556437697E-11
5.543215110170724E-5      2.7705142526505485E-11
5.5602219978501995E-5     2.770288051765837E-11
5.577228885529676E-5      2.770061152989637E-11
5.594235773209153E-5      2.7698335563219473E-11
5.611242660888629E-5      2.769605261762769E-11
5.628249548568105E-5      2.7693762690619133E-11
5.6452564362475814E-5     2.7691465778658478E-11
5.662263323927058E-5      2.768916188174571E-11
5.679270211606533E-5      2.7686850999880836E-11
5.69627709928601E-5       2.768453313306385E-11
5.7132839869654856E-5     2.768220828129476E-11
5.730290874644962E-5      2.7679876441871742E-11
5.747297762324438E-5      2.7677537610948144E-11
5.764304650003915E-5      2.7675191788523966E-11
5.781311537683391E-5      2.7672838974599206E-11
5.7983184253628675E-5     2.767047916917387E-11
5.815325313042344E-5      2.7668112372247947E-11
5.83233220072182E-5       2.7665738580919743E-11
5.8493390884012966E-5     2.766335779100696E-11
5.866345976080773E-5      2.7660970002509597E-11
5.8833528637602494E-5     2.7658575215427645E-11
5.900359751439725E-5      2.7656173429761118E-11
5.9173666391192015E-5     2.7653764645510002E-11
5.934373526798678E-5      2.7651348859573017E-11
5.951380414478154E-5      2.7648926067396198E-11
5.96838730215763E-5       2.7646496268979538E-11
5.9853941898371064E-5     2.764405946432304E-11
6.0024010775165814E-5     2.7641615653426704E-11
6.019407965196058E-5      2.7639164836290533E-11
6.036414852875534E-5      2.7636707009606646E-11
6.0534217405550106E-5     2.7634242168388914E-11
6.070428628234486E-5      2.7631770312637342E-11
6.087435515913962E-5      2.762929144235193E-11
6.104442403593438E-5      2.7626805557532683E-11
6.121449291272915E-5      2.7624312658179595E-11
6.138456178952391E-5      2.7621812740732774E-11
6.155463066631868E-5      2.7619305799719787E-11
6.172469954311344E-5      2.7616791835140616E-11
6.18947684199082E-5       2.7614270846995273E-11
6.206483729670297E-5      2.761174283528375E-11
6.223490617349773E-5      2.7609207800006062E-11
6.24049750502925E-5       2.7606665737317568E-11
6.257504392708726E-5      2.7604116641225872E-11
6.274511280388202E-5      2.7601560511730965E-11
6.291518168067679E-5      2.7598997348832853E-11
6.308525055747155E-5      2.7596427152531542E-11
6.325531943426631E-5      2.7593849922827016E-11
6.342538831106108E-5      2.7591265655591157E-11
6.359545718785583E-5      2.7588674344284108E-11
6.376552606465059E-5      2.7586075988905865E-11
6.393559494144536E-5      2.7583470589456423E-11
6.41056638182401E-5       2.7580858145935793E-11
6.427573269503487E-5      2.757823865834397E-11
6.444580157182963E-5      2.7575612122252965E-11
6.461587044862441E-5      2.7572978530554516E-11
6.478593932541916E-5      2.757033788324862E-11
6.495600820221393E-5      2.7567690180335276E-11
6.512607707900869E-5      2.756503542181449E-11
6.529614595580345E-5      2.7562373607686253E-11
6.546621483259822E-5      2.755970473318897E-11
6.5636283709393E-5        2.755702879062266E-11
6.580635258618774E-5      2.7554345779987314E-11
6.597642146298251E-5      2.755165570128294E-11
6.614649033977727E-5      2.754895855450954E-11
6.631655921657204E-5      2.754625433966711E-11
6.64866280933668E-5       2.7543543051630784E-11
6.665669697016156E-5      2.754082468207728E-11
6.682676584695633E-5      2.7538099231006585E-11
6.699683472375108E-5      2.753536669841871E-11
6.716690360054584E-5      2.7532627084313653E-11
6.73369724773406E-5       2.7529880388691413E-11
6.750704135413537E-5      2.7527126606037846E-11
6.767711023093013E-5      2.7524365727363712E-11
6.784717910772488E-5      2.7521597752669036E-11
6.801724798451965E-5      2.7518822681953806E-11
6.818731686131441E-5      2.751604051521803E-11
6.835738573810918E-5      2.75132512524617E-11
6.852745461490394E-5      2.7510454887754484E-11
6.86975234916987E-5       2.7507651411391222E-11
6.886759236849347E-5      2.7504840823371928E-11
6.903766124528822E-5      2.750202312369659E-11
6.920773012208298E-5      2.749919831236521E-11
6.937779899887774E-5      2.7496366389377794E-11
6.954786787567251E-5      2.749352734836735E-11
6.971793675246727E-5      2.7490681178853828E-11
6.988800562926202E-5      2.7487827880837214E-11
7.005807450605679E-5      2.748496745431751E-11
7.022814338285155E-5      2.7482099899294724E-11
7.039821225964631E-5      2.7479225215768848E-11
7.056828113644108E-5      2.7476343396918808E-11
7.073835001323584E-5      2.7473454431419147E-11
7.09084188900306E-5       2.747055831926987E-11
7.107848776682537E-5      2.7467655060470974E-11
7.124855664362013E-5      2.7464744655022468E-11
7.14186255204149E-5       2.746182710292434E-11
7.158869439720966E-5      2.745890239687239E-11
7.175876327400443E-5      2.745597052461532E-11
7.192883215079919E-5      2.7453031486153137E-11
7.209890102759395E-5      2.745008528148584E-11
7.226896990438872E-5      2.7447131910613436E-11
7.243903878118348E-5      2.744417137353592E-11
7.260910765797824E-5      2.7441203662418682E-11
7.277917653477301E-5      2.7438228763995732E-11
7.294924541156777E-5      2.743524667826707E-11
7.311931428836252E-5      2.7432257405232703E-11
7.32893831651573E-5       2.742926094489263E-11
7.345945204195205E-5      2.7426257297246846E-11
7.362952091874681E-5      2.7423246453893784E-11
7.379958979554158E-5      2.7420228400443986E-11
7.396965867233633E-5      2.741720313689746E-11
7.413972754913108E-5      2.7414170663254203E-11
7.430979642592586E-5      2.7411130979514212E-11
7.44798653027206E-5       2.7408084085677495E-11
7.464993417951538E-5      2.7405029972752515E-11
7.482000305631013E-5      2.7401968625095015E-11
7.499007193310491E-5      2.7398900042705E-11
7.516014080989968E-5      2.739582422558248E-11
7.533020968669444E-5      2.739274117372745E-11
7.55002785634892E-5       2.7389650887139904E-11
7.567034744028397E-5      2.738655335622351E-11
7.584041631707873E-5      2.7383448563909768E-11
7.601048519387348E-5      2.738033651019867E-11
7.618055407066824E-5      2.7377217195090217E-11
7.6350622947463E-5        2.7374090618584416E-11
7.652069182425776E-5      2.7370956780681263E-11
7.669076070105252E-5      2.7367815671107225E-11
7.686082957784729E-5      2.736466727118012E-11
7.703089845464205E-5      2.7361511580899938E-11
7.72009673314368E-5       2.7358348600266688E-11
7.737103620823156E-5      2.7355178329280373E-11
7.754110508502633E-5      2.7352000767940986E-11
7.771117396182109E-5      2.7348815905226088E-11
7.788124283861586E-5      2.734562372060791E-11
7.805131171541062E-5      2.734242421408646E-11
7.822138059220538E-5      2.733921738566173E-11
7.839144946900015E-5      2.7336003235333727E-11
7.856151834579491E-5      2.7332781763102446E-11
7.873158722258968E-5      2.7329552957190742E-11
7.890165609938444E-5      2.732631679489366E-11
7.907172497617919E-5      2.7323073276211203E-11
7.924179385297395E-5      2.7319822401143367E-11
7.941186272976872E-5      2.7316564169690163E-11
7.958193160656348E-5      2.731329858185158E-11
7.975200048335824E-5      2.73100256251181E-11
7.992206936015301E-5      2.7306745274151603E-11
8.009213823694777E-5      2.73034575289521E-11
8.026220711374252E-5      2.7300162389519588E-11
8.04322759905373E-5       2.729685985585406E-11
8.060234486733205E-5      2.7293549927955526E-11
8.077241374412683E-5      2.7290232592570815E-11
8.094248262092158E-5      2.7286907821151954E-11
8.111255149771634E-5      2.7283575613698955E-11
8.12826203745111E-5       2.728023597021181E-11
8.145268925130588E-5      2.7276888890690524E-11
8.162275812810063E-5      2.7273534375135094E-11
8.179282700489541E-5      2.7270172409515197E-11
8.196289588169016E-5      2.7266802961340857E-11
8.213296475848491E-5      2.7263426030612072E-11
8.230303363527969E-5      2.7260041617328852E-11
8.247310251207444E-5      2.725664972149119E-11
8.26431713888692E-5       2.7253250343099088E-11
8.281324026566398E-5      2.7249843467307828E-11
8.298330914245874E-5      2.724642905672926E-11
8.31533780192535E-5       2.7243007111363392E-11
8.332344689604827E-5      2.7239577631210222E-11
8.349351577284304E-5      2.723614061626975E-11
8.36635846496378E-5       2.7232696066541974E-11
8.383365352643258E-5      2.7229243966324345E-11
8.400372240322733E-5      2.7225784272098308E-11
8.417379128002208E-5      2.722231698386384E-11
8.434386015681686E-5      2.7218842101620962E-11
8.45139290336116E-5       2.7215359625369662E-11
8.468399791040637E-5      2.7211869555109944E-11
8.485406678720113E-5      2.7208371874305685E-11
8.50241356639959E-5       2.7204866531682867E-11
8.519420454079065E-5      2.7201353527241507E-11
8.536427341758541E-5      2.719783286098159E-11
8.553434229438016E-5      2.7194304532903124E-11
8.570441117117493E-5      2.7190768543006105E-11
8.587448004796969E-5      2.7187224873727325E-11
8.604454892476445E-5      2.718367346406442E-11
8.621461780155922E-5      2.7180114314017375E-11
8.638468667835397E-5      2.71765474235862E-11
8.655475555514873E-5      2.7172972792770892E-11
8.67248244319435E-5       2.7169390421571454E-11
8.689489330873826E-5      2.7165800291395968E-11
8.706496218553302E-5      2.716220232885689E-11
8.723503106232779E-5      2.7158596533954227E-11
8.740509993912255E-5      2.715498290668798E-11
8.757516881591731E-5      2.7151361447058152E-11
8.774523769271208E-5      2.7147732155064736E-11
8.791530656950684E-5      2.714409501065921E-11
8.80853754463016E-5       2.7140449924890502E-11
8.825544432309636E-5      2.713679689775863E-11
8.842551319989112E-5      2.7133135929263587E-11
8.859558207668588E-5      2.7129467019405373E-11
8.876565095348065E-5      2.7125790168183988E-11
8.893571983027541E-5      2.7122105353260712E-11
8.910578870707019E-5      2.711841246626324E-11
8.927585758386494E-5      2.7114711507191566E-11
8.94459264606597E-5       2.71110024760457E-11
8.961599533745447E-5      2.7107285372825638E-11
8.978606421424923E-5      2.7103560197531382E-11
8.9956133091044E-5        2.7099826924026148E-11
9.012620196783876E-5      2.7096085420006666E-11
9.029627084463352E-5      2.7092335685472923E-11
9.046633972142827E-5      2.7088577720424918E-11
9.063640859822305E-5      2.7084811524862665E-11
9.08064774750178E-5       2.7081037098786154E-11
9.097654635181258E-5      2.707725440981523E-11
9.114661522860733E-5      2.7073463296656377E-11
9.131668410540209E-5      2.7069663759309583E-11
9.148675298219686E-5      2.7065855797774854E-11
9.165682185899162E-5      2.706203941205219E-11
9.182689073578638E-5      2.7058214602141588E-11
9.199695961258116E-5      2.7054381325876916E-11
9.216702848937591E-5      2.70505393875264E-11
9.233709736617066E-5      2.7046688787090058E-11
9.250716624296544E-5      2.7042829524567874E-11
9.267723511976019E-5      2.7038961599959855E-11
9.284730399655495E-5      2.7035085013266E-11
9.301737287334972E-5      2.7031199707790807E-11
9.31874417501445E-5       2.702730544787192E-11
9.335751062693924E-5      2.702340223350934E-11
9.3527579503734E-5        2.7019490064703063E-11
9.369764838052876E-5      2.70155689414531E-11
9.386771725732352E-5      2.701163886375944E-11
9.403778613411829E-5      2.7007699754338046E-11
9.420785501091305E-5      2.7003751332835624E-11
9.43779238877078E-5       2.699979359925218E-11
9.454799276450256E-5      2.6995826553587718E-11
9.471806164129733E-5      2.699185019584224E-11
9.488813051809209E-5      2.6987864526015732E-11
9.505819939488686E-5      2.698386943893811E-11
9.522826827168162E-5      2.697986460682261E-11
9.539833714847638E-5      2.6975850029669232E-11
9.556840602527113E-5      2.6971825707477977E-11
9.57384749020659E-5       2.6967791640248854E-11
9.590854377886066E-5      2.6963747827981854E-11
9.607861265565543E-5      2.6959694129644616E-11
9.62486815324502E-5       2.6955630170928645E-11
9.641875040924495E-5      2.6951555951833943E-11
9.658881928603972E-5      2.694747147236051E-11
9.675888816283448E-5      2.6943376732508344E-11
9.692895703962925E-5      2.6939271732277446E-11
9.709902591642401E-5      2.6935156287311287E-11
9.726909479321879E-5      2.6931029982849894E-11
9.743916367001354E-5      2.6926892818893252E-11
9.76092325468083E-5       2.6922744795441366E-11
9.777930142360306E-5      2.6918585912494237E-11
9.794937030039783E-5      2.6914416170051865E-11
9.811943917719258E-5      2.6910235335345907E-11
9.828950805398736E-5      2.69060429648273E-11
9.84595769307821E-5       2.690183905849604E-11
9.862964580757686E-5      2.689762361635213E-11
9.879971468437162E-5      2.6893396638395575E-11
9.896978356116637E-5      2.6889158124626368E-11
9.913985243796113E-5      2.6884907793134887E-11
9.930992131475591E-5      2.6880645187433365E-11
9.947999019155066E-5      2.6876370307521812E-11
9.965005906834544E-5      2.687208315340022E-11
9.982012794514019E-5      2.6867783725068594E-11
9.999019682193495E-5      2.686347202252693E-11
1.0016026569872972E-4     2.6859147719460698E-11
1.003303345755245E-4      2.6854810363281492E-11
1.0050040345231925E-4     2.6850459953989297E-11
1.0067047232911402E-4     2.6846096491584124E-11
1.0084054120590877E-4     2.684171997606597E-11
1.0101061008270354E-4     2.6837330407434833E-11
1.011806789594983E-4      2.6832927424715704E-11
1.0135074783629308E-4     2.682851059316868E-11
1.0152081671308783E-4     2.6824079912793748E-11
1.016908855898826E-4      2.681963538359092E-11
1.0186095446667736E-4     2.68151770055602E-11
1.0203102334347212E-4     2.6810704778701575E-11
1.0220109222026688E-4     2.6806218320092334E-11
1.0237116109706166E-4     2.6801717221149687E-11
1.0254122997385641E-4     2.6797201481873627E-11
1.0271129885065116E-4     2.679267110226415E-11
1.0288136772744593E-4     2.678812608232127E-11
1.0305143660424069E-4     2.6783566422044975E-11
1.0322150548103545E-4     2.6778991729401776E-11
1.0339157435783022E-4     2.677440162420145E-11
1.0356164323462497E-4     2.676979610644399E-11