% Model:              ModelMicPlate_Rh20um_hg5um_Refined_MaterialDefPolySilicon.mph
% Version:            COMSOL 6.3.0.335
% Date:               May 21 2025, 13:45
% Dimension:          1
% Nodes:              708
% Expressions:        1
% Description:        Line graph
% Arc length (m)          imag(w2)
0                         2.7489729876554573E-11
4.0816326530612243E-7     2.7489612520441888E-11
8.163265306122445E-7      2.748926052055373E-11
1.224489795918367E-6      2.748867387689008E-11
1.632653061224489E-6      2.748785258945095E-11
2.0408163265306117E-6     2.7486796658236345E-11
2.448979591836734E-6      2.7485506083246255E-11
2.857142857142856E-6      2.7483980864480683E-11
3.265306122448978E-6      2.7482221007992298E-11
3.6734693877551007E-6     2.748022657579996E-11
4.0816326530612225E-6     2.7477997567903643E-11
4.489795918367345E-6      2.7475533984303374E-11
4.897959183673468E-6      2.7472835824999145E-11
5.30612244897959E-6       2.746990308999095E-11
5.714285714285712E-6      2.7466735779278792E-11
6.1224489795918346E-6     2.746333393474547E-11
6.530612244897958E-6      2.74596976524403E-11
6.9387755102040806E-6     2.7455826932363267E-11
7.3469387755102015E-6     2.745172177451438E-11
7.755102040816326E-6      2.744738217889364E-11
8.163265306122448E-6      2.7442808145501044E-11
8.571428571428571E-6      2.7437999674336595E-11
8.979591836734694E-6      2.743295683460314E-11
9.387755102040816E-6      2.7427679766953437E-11
9.795918367346939E-6      2.7422168471387482E-11
1.020408163265306E-5      2.741642294790528E-11
1.0612244897959184E-5     2.741044319650684E-11
1.1020408163265308E-5     2.7404229217192143E-11
1.1428571428571429E-5     2.7397781009961195E-11
1.1836734693877552E-5     2.7391098666800818E-11
1.2244897959183674E-5     2.738418237667049E-11
1.2653061224489795E-5     2.7377032139570194E-11
1.3061224489795918E-5     2.7369647955499953E-11
1.346938775510204E-5      2.7362029824459755E-11
1.3877551020408165E-5     2.7354177746449603E-11
1.4285714285714285E-5     2.7346091721469493E-11
1.4693877551020408E-5     2.7337771879891274E-11
1.510204081632653E-5      2.7329218447742117E-11
1.5510204081632655E-5     2.7320431425021996E-11
1.5918367346938776E-5     2.731141081173093E-11
1.63265306122449E-5       2.7302156607868924E-11
1.6734693877551024E-5     2.7292668813435956E-11
1.7142857142857145E-5     2.7282947428432043E-11
1.755102040816327E-5      2.7272992623475688E-11
1.795918367346939E-5      2.7262804671823687E-11
1.8367346938775515E-5     2.7252383573476007E-11
1.8775510204081636E-5     2.724172932843268E-11
1.9183673469387756E-5     2.72308419366937E-11
1.959183673469388E-5      2.7219721398259045E-11
2.0E-5                    2.7208367713128743E-11
2.042553191489362E-5      2.719628272244579E-11
2.0851063829787234E-5     2.7183944949716204E-11
2.1276595744680852E-5     2.7171354394939973E-11
2.1702127659574467E-5     2.7158511058117102E-11
2.212765957446808E-5      2.7145414939247598E-11
2.2553191489361703E-5     2.7132066038331444E-11
2.2978723404255317E-5     2.7118464355368657E-11
2.3404255319148935E-5     2.710460995492672E-11
2.382978723404255E-5      2.709050354673896E-11
2.4255319148936165E-5     2.707614513080536E-11
2.4680851063829783E-5     2.7061534707125934E-11
2.51063829787234E-5       2.704667227570069E-11
2.5531914893617015E-5     2.7031557836529605E-11
2.5957446808510633E-5     2.7016191389612698E-11
2.638297872340425E-5      2.7000573126200256E-11
2.6808510638297866E-5     2.698470381899743E-11
2.7234042553191484E-5     2.696858346800422E-11
2.7659574468085102E-5     2.695221207322063E-11
2.808510638297872E-5      2.6935589634646666E-11
2.8510638297872334E-5     2.6918716152282307E-11
2.8936170212765952E-5     2.6901591626127576E-11
2.936170212765957E-5      2.68842163583851E-11
2.9787234042553185E-5     2.686659123095361E-11
3.02127659574468E-5       2.6848716243833088E-11
3.063829787234042E-5      2.6830591397023547E-11
3.106382978723404E-5      2.681221669052499E-11
3.148936170212765E-5      2.67935921243374E-11
3.191489361702127E-5      2.6774717698460796E-11
3.2340425531914886E-5     2.6755593816775426E-11
3.2765957446808504E-5     2.673622149175576E-11
3.319148936170212E-5      2.671660072340179E-11
3.361702127659574E-5      2.669673151171353E-11
3.404255319148936E-5      2.6676613856690987E-11
3.4468085106382976E-5     2.665624775833413E-11
3.4893617021276594E-5     2.6635633216642988E-11
3.531914893617021E-5      2.66147707422254E-11
3.574468085106383E-5      2.6593661485018075E-11
3.617021276595744E-5      2.6572305445021002E-11
3.659574468085106E-5      2.655070262223419E-11
3.702127659574468E-5      2.6528853016657645E-11
3.744680851063829E-5      2.6506756628291347E-11
3.7872340425531907E-5     2.6484413457135313E-11
3.8297872340425525E-5     2.646182412739502E-11
3.8723404255319136E-5     2.643898992947887E-11
3.914893617021275E-5      2.6415910863386853E-11
3.957446808510637E-5      2.6392586929118977E-11
3.999999999999998E-5      2.6369018126675244E-11
4.04255319148936E-5       2.6345204456055638E-11
4.085106382978722E-5      2.632114591726018E-11
4.127659574468084E-5      2.6296843254231078E-11
4.1702127659574455E-5     2.6272297899495544E-11
4.2127659574468066E-5     2.6247509853053568E-11
4.255319148936169E-5      2.622247911490516E-11
4.29787234042553E-5       2.6197205685050323E-11
4.340425531914893E-5      2.617168956348904E-11
4.382978723404254E-5      2.614593075022133E-11
4.4255319148936156E-5     2.6119930113968707E-11
4.4680851063829774E-5     2.609368923027438E-11
4.5106382978723385E-5     2.6067208099138337E-11
4.5531914893616997E-5     2.604048672056059E-11
4.5957446808510615E-5     2.6013525094541136E-11
4.638297872340423E-5      2.598632322107997E-11
4.680851063829785E-5      2.5958881100177098E-11
4.7234042553191475E-5     2.5931199729349307E-11
4.765957446808508E-5      2.5903280827488426E-11
4.8085106382978704E-5     2.5875124394594444E-11
4.851063829787232E-5      2.5846730430667372E-11
4.893617021276594E-5      2.5818098935707218E-11
4.936170212765956E-5      2.5789229909713957E-11
4.9787234042553176E-5     2.5760123352687612E-11
5.02127659574468E-5       2.5730780394057392E-11
5.0638297872340406E-5     2.5701202895905645E-11
5.1063829787234024E-5     2.5671390858232367E-11
5.148936170212764E-5      2.5641344281037562E-11
5.191489361702126E-5      2.5611063164321234E-11
5.234042553191487E-5      2.558054750808337E-11
5.276595744680849E-5      2.554979731232398E-11
5.319148936170211E-5      2.5518813840725436E-11
5.3617021276595725E-5     2.548759909795172E-11
5.404255319148934E-5      2.5456153084002822E-11
5.446808510638296E-5      2.5424475798878747E-11
5.489361702127658E-5      2.53925672425795E-11
5.53191489361702E-5       2.5360427415105066E-11
5.5744680851063815E-5     2.5328056316455463E-11
5.617021276595743E-5      2.5295455346222338E-11
5.6595744680851044E-5     2.5262626650628384E-11
5.7021276595744655E-5     2.5229570229673596E-11
5.744680851063827E-5      2.5196286083357975E-11
5.7872340425531884E-5     2.5162774211681537E-11
5.82978723404255E-5       2.512903461464426E-11
5.8723404255319114E-5     2.5095067292246156E-11
5.914893617021274E-5      2.506087378103031E-11
5.9574468085106356E-5     2.5026456367374936E-11
5.999999999999997E-5      2.4991815051280025E-11
6.042553191489359E-5      2.4956949832745583E-11
6.085106382978722E-5      2.492186071177162E-11
6.127659574468083E-5      2.4886547688358116E-11
6.170212765957445E-5      2.4851010762505087E-11
6.212765957446806E-5      2.481525160819784E-11
6.255319148936169E-5      2.4779272650210704E-11
6.297872340425529E-5      2.4743073888543665E-11
6.340425531914891E-5      2.4706655323196738E-11
6.382978723404252E-5      2.467001695416993E-11
6.425531914893613E-5      2.4633158781463213E-11
6.468085106382975E-5      2.4596080805076608E-11
6.510638297872337E-5      2.4558784836427713E-11
6.553191489361698E-5      2.4521273436593867E-11
6.59574468085106E-5       2.448354660557508E-11
6.638297872340422E-5      2.444560434337135E-11
6.680851063829784E-5      2.4407446649982685E-11
6.723404255319147E-5      2.4369073525409063E-11
6.765957446808508E-5      2.4330484969650505E-11
6.80851063829787E-5       2.429168293108877E-11
6.851063829787231E-5      2.4252670104699362E-11
6.893617021276593E-5      2.421344649048227E-11
6.936170212765955E-5      2.4174012088437513E-11
6.978723404255316E-5      2.4134366898565083E-11
7.021276595744679E-5      2.4094510920864966E-11
7.06382978723404E-5       2.405444415533718E-11
7.106382978723402E-5      2.4014168686432234E-11
7.148936170212763E-5      2.3973687340329922E-11
7.191489361702124E-5      2.3933000117030245E-11
7.234042553191486E-5      2.38921070165332E-11
7.276595744680848E-5      2.38510080388388E-11
7.31914893617021E-5       2.3809703183947022E-11
7.361702127659572E-5      2.3768192451857884E-11
7.404255319148934E-5      2.3726478061805654E-11
7.446808510638294E-5      2.3684562968203255E-11
7.489361702127655E-5      2.3642447171050684E-11
7.531914893617019E-5      2.360013067034795E-11
7.574468085106379E-5      2.3557613466095055E-11
7.617021276595741E-5      2.3514895558291983E-11
7.659574468085102E-5      2.3471976946938746E-11
7.702127659574463E-5      2.342885998440504E-11
7.744680851063826E-5      2.3385547750108296E-11
7.787234042553187E-5      2.3342040244048507E-11
7.82978723404255E-5       2.3298337466225685E-11
7.87234042553191E-5       2.3254439416639828E-11
7.914893617021272E-5      2.321034609529092E-11
7.957446808510634E-5      2.3166057502178982E-11
7.999999999999997E-5      2.3121576120820277E-11
8.042553191489356E-5      2.307690515216627E-11
8.085106382978717E-5      2.3032044596216965E-11
8.12765957446808E-5       2.2986994452972365E-11
8.170212765957441E-5      2.2941754722432475E-11
8.212765957446802E-5      2.2896325404597274E-11
8.255319148936163E-5      2.2850706499466786E-11
8.297872340425526E-5      2.280490061939703E-11
8.340425531914888E-5      2.2758911083175446E-11
8.38297872340425E-5       2.271273789080202E-11
8.425531914893612E-5      2.266638104227676E-11
8.468085106382974E-5      2.2619840537599673E-11
8.510638297872335E-5      2.2573116376770744E-11
8.553191489361698E-5      2.2526208559789982E-11
8.59574468085106E-5       2.2479119825250304E-11
8.638297872340422E-5      2.2431853605861923E-11
8.680851063829783E-5      2.2384409901624826E-11
8.723404255319144E-5      2.233678871253902E-11
8.765957446808508E-5      2.2288990038604513E-11
8.808510638297869E-5      2.224101387982129E-11
8.85106382978723E-5       2.2192860236189358E-11
8.893617021276592E-5      2.2144531969657005E-11
8.936170212765952E-5      2.2096032622743516E-11
8.978723404255313E-5      2.2047362195448888E-11
9.021276595744674E-5      2.199852068777312E-11
9.063829787234035E-5      2.1949508099716222E-11
9.106382978723398E-5      2.1900324431278177E-11
9.148936170212759E-5      2.1850969682458997E-11
9.191489361702122E-5      2.1801446835418985E-11
9.234042553191483E-5      2.175175953818499E-11
9.276595744680844E-5      2.1701907790757012E-11
9.319148936170208E-5      2.1651891593135054E-11
9.361702127659569E-5      2.1601710945319116E-11
9.40425531914893E-5       2.1551365847309186E-11
9.446808510638292E-5      2.1500856299105278E-11
9.489361702127655E-5      2.1450185399691666E-11
9.531914893617015E-5      2.1399356898124564E-11
9.574468085106377E-5      2.134837079440397E-11
9.617021276595738E-5      2.12972270885299E-11
9.6595744680851E-5        2.124592578050234E-11
9.702127659574462E-5      2.1194466870321283E-11
9.744680851063823E-5      2.1142850357986745E-11
9.787234042553185E-5      2.1091079455689584E-11
9.829787234042548E-5      2.1039158008872463E-11
9.872340425531908E-5      2.0987086017535374E-11
9.914893617021271E-5      2.093486348167833E-11
9.957446808510633E-5      2.088249040130133E-11
9.999999999999995E-5      2.082996677640435E-11
1.0042553191489358E-4     2.0777292606987423E-11
1.008510638297872E-4      2.0724471214614537E-11
1.012765957446808E-4      2.0671506536319457E-11
1.0170212765957441E-4     2.061839857210218E-11
1.0212765957446803E-4     2.0565147321962702E-11
1.0255319148936166E-4     2.0511752785901042E-11
1.0297872340425527E-4     2.0458214963917173E-11
1.0340425531914888E-4     2.0404533856011115E-11
1.038297872340425E-4      2.0350712889084658E-11
1.0425531914893612E-4     2.0296756086825435E-11
1.0468085106382971E-4     2.024266344923344E-11
1.0510638297872335E-4     2.0188434976308673E-11
1.0553191489361695E-4     2.0134070668051144E-11
1.0595744680851058E-4     2.0079570524460837E-11
1.0638297872340419E-4     2.0024934545537764E-11
1.068085106382978E-4      1.9970166259297944E-11
1.0723404255319141E-4     1.991526977101405E-11
1.0765957446808503E-4     1.9860245080686078E-11
1.0808510638297865E-4     1.980509218831403E-11
1.0851063829787227E-4     1.9749811093897915E-11
1.0893617021276588E-4     1.9694401797437718E-11
1.093617021276595E-4      1.9638864298933447E-11
1.0978723404255313E-4     1.9583202223115648E-11
1.1021276595744674E-4     1.9527419751652944E-11
1.1063829787234035E-4     1.947151688454531E-11
1.1106382978723399E-4     1.9415493621792773E-11
1.114893617021276E-4      1.9359349963395327E-11
1.1191489361702123E-4     1.9303085909352952E-11
1.1234042553191484E-4     1.9246701459665672E-11
1.1276595744680846E-4     1.919020033121432E-11
1.1319148936170207E-4     1.9133586776764757E-11
1.1361702127659569E-4     1.907686079631699E-11
1.140425531914893E-4      1.9020022389871018E-11
1.1446808510638292E-4     1.8963071557426847E-11
1.1489361702127652E-4     1.8906008298984463E-11
1.1531914893617014E-4     1.884883261454388E-11
1.1574468085106377E-4     1.8791548308420094E-11
1.1617021276595738E-4     1.8734159699077287E-11
1.1659574468085099E-4     1.8676666786515456E-11
1.1702127659574462E-4     1.8619069570734604E-11
1.1744680851063824E-4     1.8561368051734735E-11
1.1787234042553185E-4     1.850356222951584E-11
1.1829787234042546E-4     1.8445652104077925E-11
1.1872340425531909E-4     1.8387641562313547E-11
1.191489361702127E-4      1.8329534982896282E-11
1.1957446808510631E-4     1.8271332365826127E-11
1.1999999999999994E-4     1.8213033711103088E-11
1.2042553191489355E-4     1.8154639018727168E-11
1.2085106382978716E-4     1.809614828869835E-11
1.2127659574468078E-4     1.8037561521016654E-11
1.2170212765957441E-4     1.7978882680165434E-11
1.2212765957446802E-4     1.7920116199459347E-11
1.2255319148936163E-4     1.7861262078898382E-11
1.2297872340425524E-4     1.7802320318482547E-11
1.2340425531914888E-4     1.774329091821184E-11
1.238297872340425E-4      1.7684173878086253E-11
1.242553191489361E-4      1.76249691981058E-11
1.246808510638297E-4      1.7565680915238963E-11
1.2510638297872332E-4     1.7506313511802947E-11
1.2553191489361694E-4     1.7446866987797754E-11
1.2595744680851055E-4     1.738734134322339E-11
1.2638297872340416E-4     1.7327736578079848E-11
1.268085106382978E-4      1.7268052692367132E-11
1.272340425531914E-4      1.7208289686085238E-11
1.2765957446808505E-4     1.7148451663474352E-11
1.2808510638297863E-4     1.7088543150154835E-11
1.2851063829787224E-4     1.702856414612668E-11
1.2893617021276588E-4     1.6968514651389887E-11
1.293617021276595E-4      1.690839466594447E-11
1.297872340425531E-4      1.684820418979041E-11
1.302127659574467E-4      1.678794322292772E-11
1.3063829787234032E-4     1.6727615931556963E-11
1.3106382978723396E-4     1.666722687885145E-11
1.3148936170212755E-4     1.660677606481118E-11
1.3191489361702118E-4     1.6546263489436156E-11
1.3234042553191482E-4     1.6485689152726375E-11
1.3276595744680843E-4     1.6425053054681833E-11
1.3319148936170205E-4     1.6364355195302537E-11
1.3361702127659568E-4     1.6303599797350174E-11
1.340425531914893E-4      1.6242791455759498E-11
1.344680851063829E-4      1.6181930170530517E-11
1.3489361702127652E-4     1.612101594166323E-11
1.3531914893617016E-4     1.6060048769157637E-11
1.3574468085106377E-4     1.5999028653013732E-11
1.3617021276595738E-4     1.5937955593231528E-11
1.36595744680851E-4       1.5876833863657437E-11
1.370212765957446E-4      1.5815668085163447E-11
1.374468085106382E-4      1.5754458257749555E-11
1.3787234042553182E-4     1.5693204381415773E-11
1.3829787234042546E-4     1.563190645616209E-11
1.3872340425531907E-4     1.5570564481988508E-11
1.3914893617021268E-4     1.5509178458895034E-11
1.395744680851063E-4      1.5447752706268996E-11
1.399999999999999E-4      1.5386291865072218E-11
1.4042553191489352E-4     1.5324795935304697E-11
1.4085106382978716E-4     1.5263264916966436E-11
1.4127659574468077E-4     1.5201698810057442E-11
1.4170212765957438E-4     1.5140097614577698E-11
1.42127659574468E-4       1.507846133052722E-11
1.4255319148936163E-4     1.501679431723225E-11
1.429787234042552E-4      1.49551012298833E-11
1.4340425531914882E-4     1.489338206848037E-11
1.4382978723404246E-4     1.483163683302346E-11
1.4425531914893607E-4     1.476986552351258E-11
1.446808510638297E-4      1.4708068139947715E-11
1.4510638297872332E-4     1.4646244682328872E-11
1.4553191489361696E-4     1.458439954427096E-11
1.4595744680851054E-4     1.4522537389326853E-11
1.4638297872340416E-4     1.4460658217496547E-11
1.468085106382978E-4      1.4398762028780048E-11
1.472340425531914E-4      1.4336848823177358E-11
1.4765957446808502E-4     1.4274918600688465E-11
1.4808510638297863E-4     1.4212971361313378E-11
1.4851063829787224E-4     1.4151011527267078E-11
1.4893617021276588E-4     1.4089043764601913E-11
1.493617021276595E-4      1.4027068073317885E-11
1.497872340425531E-4      1.3965084453414993E-11
1.5021276595744674E-4     1.3903092904893242E-11
1.5063829787234035E-4     1.3841093427752624E-11
1.5106382978723396E-4     1.3779086021993145E-11
1.5148936170212757E-4     1.3717075132711724E-11
1.519148936170212E-4      1.3655065422610072E-11
1.523404255319148E-4      1.3593056891688181E-11
1.5276595744680843E-4     1.3531049539946063E-11
1.5319148936170204E-4     1.3469043367383716E-11
1.5361702127659563E-4     1.3407038374001132E-11
1.5404255319148927E-4     1.3345034559798317E-11
1.5446808510638288E-4     1.3283036387015633E-11
1.548936170212765E-4      1.3221048509175373E-11
1.553191489361701E-4      1.315907092627755E-11
1.557446808510637E-4      1.3097103638322155E-11
1.5617021276595732E-4     1.3035146645309194E-11
1.5659574468085093E-4     1.2973199947238655E-11
1.5702127659574457E-4     1.2911263544110551E-11
1.574468085106382E-4      1.2849341909559445E-11
1.578723404255318E-4      1.2787439682128941E-11
1.5829787234042543E-4     1.2725556861819044E-11
1.5872340425531904E-4     1.2663693448629752E-11
1.5914893617021266E-4     1.2601849442561068E-11
1.595744680851063E-4      1.2540024843612986E-11
1.599999999999999E-4      1.247821965178551E-11
1.6042553191489354E-4     1.2416438346356384E-11
1.6085106382978715E-4     1.2354685545129309E-11
1.6127659574468077E-4     1.229296124810428E-11
1.6170212765957438E-4     1.2231265455281299E-11
1.62127659574468E-4       1.2169598166660373E-11
1.6255319148936163E-4     1.2107959382241488E-11
1.6297872340425524E-4     1.2046349102024656E-11
1.6340425531914885E-4     1.1984771805186276E-11
1.6382978723404246E-4     1.1923232083075908E-11
1.642553191489361E-4      1.1861729935693548E-11
1.646808510638297E-4      1.1800265363039204E-11
1.6510638297872332E-4     1.1738838365112874E-11
1.6553191489361693E-4     1.167744894191455E-11
1.6595744680851054E-4     1.161609709344424E-11
1.6638297872340415E-4     1.1554787293048346E-11
1.668085106382978E-4      1.1493524099962595E-11
1.6723404255319138E-4     1.143230751418699E-11
1.6765957446808501E-4     1.1371137535721526E-11
1.6808510638297863E-4     1.1310014164566212E-11
1.6851063829787224E-4     1.124893740072104E-11
1.6893617021276588E-4     1.1187907244186012E-11
1.693617021276595E-4      1.112692815677351E-11
1.697872340425531E-4      1.1066004660008416E-11
1.702127659574467E-4      1.100513675389073E-11
1.7063829787234032E-4     1.094432443842045E-11
1.7106382978723396E-4     1.0883567713597581E-11
1.7148936170212757E-4     1.0822866579422118E-11
1.7191489361702118E-4     1.0762221035894063E-11
1.7234042553191482E-4     1.0701635527620481E-11
1.7276595744680843E-4     1.0641114532889535E-11
1.7319148936170204E-4     1.058065805170122E-11
1.7361702127659565E-4     1.052026608405554E-11
1.7404255319148926E-4     1.0459938629952493E-11
1.744680851063829E-4      1.0399675689392079E-11
1.7489361702127651E-4     1.0339477262374298E-11
1.7531914893617015E-4     1.0279347770670884E-11
1.7574468085106374E-4     1.0219291643886237E-11
1.7617021276595735E-4     1.0159308882020354E-11
1.7659574468085099E-4     1.009939948507324E-11
1.770212765957446E-4      1.003956345304489E-11
1.774468085106382E-4      9.979800785935306E-12
1.7787234042553182E-4     9.920111483744488E-12
1.7829787234042543E-4     9.860499939828754E-12
1.7872340425531904E-4     9.800970529747921E-12
1.7914893617021265E-4     9.741523253501984E-12
1.795744680851063E-4      9.682158111090947E-12
1.7999999999999993E-4     9.622875102514814E-12
1.8042553191489351E-4     9.563674227773573E-12
1.8085106382978715E-4     9.504555486867234E-12
1.8127659574468076E-4     9.445523239214648E-12
1.8170212765957437E-4     9.386581801064291E-12
1.8212765957446799E-4     9.32773117241616E-12
1.825531914893616E-4      9.268971353270257E-12
1.829787234042552E-4      9.210302343626583E-12
1.8340425531914882E-4     9.151724143485132E-12
1.8382978723404243E-4     9.093236752845914E-12
1.8425531914893607E-4     9.034844491733913E-12
1.8468085106382968E-4     8.976551611921425E-12
1.851063829787233E-4      8.918358113408445E-12
1.8553191489361693E-4     8.860263996194978E-12
1.8595744680851054E-4     8.802269260281027E-12
1.8638297872340418E-4     8.744373905666583E-12
1.868085106382978E-4      8.686577932351652E-12
1.8723404255319143E-4     8.628885615585071E-12
1.8765957446808504E-4     8.571301137606733E-12
1.8808510638297862E-4     8.513824498416636E-12
1.8851063829787226E-4     8.456455698014783E-12
1.8893617021276585E-4     8.399194736401174E-12
1.8936170212765949E-4     8.342041613575804E-12
1.897872340425531E-4      8.28499632953868E-12
1.9021276595744673E-4     8.228063109462153E-12
1.9063829787234032E-4     8.171246061113431E-12
1.9106382978723393E-4     8.114545184492507E-12
1.9148936170212757E-4     8.057960479599385E-12
1.9191489361702115E-4     8.001491946434066E-12
1.923404255319148E-4      7.945139584996546E-12
1.927659574468084E-4      7.888903395286827E-12
1.93191489361702E-4       7.832787547189695E-12
1.9361702127659562E-4     7.776796069182688E-12
1.9404255319148926E-4     7.720928961265804E-12
1.9446808510638287E-4     7.665186223439047E-12
1.9489361702127649E-4     7.609567855702416E-12
1.953191489361701E-4      7.554073858055909E-12
1.957446808510637E-4      7.498704230499527E-12
1.9617021276595732E-4     7.443463082516251E-12
1.9659574468085096E-4     7.388354358606914E-12
1.9702127659574454E-4     7.333378058771514E-12
1.9744680851063818E-4     7.278534183010056E-12
1.978723404255318E-4      7.223822731322537E-12
1.9829787234042543E-4     7.169243703708955E-12
1.9872340425531904E-4     7.114797100169313E-12
1.9914893617021268E-4     7.0604869647752045E-12
1.9957446808510626E-4     7.006317153500014E-12
1.9999999999999987E-4     6.952287666343741E-12
2.004255319148935E-4      6.898398503306386E-12
2.0085106382978715E-4     6.844649664387952E-12
2.0127659574468076E-4     6.7910411495884316E-12
2.0170212765957437E-4     6.737572958907831E-12
2.02127659574468E-4       6.684249066108363E-12
2.0255319148936162E-4     6.631073234228417E-12
2.029787234042552E-4      6.57804546326799E-12
2.0340425531914887E-4     6.525165753227084E-12
2.0382978723404246E-4     6.4724341041057E-12
2.042553191489361E-4      6.419850515903834E-12
2.046808510638297E-4      6.36741498862149E-12
2.0510638297872332E-4     6.315131420931896E-12
2.0553191489361693E-4     6.263003478680562E-12
2.0595744680851054E-4     6.211031161867487E-12
2.0638297872340415E-4     6.159214470492674E-12
2.0680851063829776E-4     6.107553404556124E-12
2.0723404255319137E-4     6.056047964057832E-12
2.0765957446808498E-4     6.004698148997802E-12
2.080851063829786E-4      5.953507778306438E-12
2.085106382978722E-4      5.902480416533762E-12
2.0893617021276582E-4     5.851616063679773E-12
2.0936170212765946E-4     5.800914719744473E-12
2.097872340425531E-4      5.750376384727862E-12
2.1021276595744668E-4     5.700001058629937E-12
2.1063829787234032E-4     5.649788741450701E-12
2.1106382978723393E-4     5.5997431678563825E-12
2.1148936170212754E-4     5.5498677971602995E-12
2.1191489361702115E-4     5.500162629362449E-12
2.1234042553191476E-4     5.4506276644628354E-12
2.1276595744680837E-4     5.401262902461456E-12
2.1319148936170198E-4     5.35206834335831E-12
2.136170212765956E-4      5.3030439871533995E-12
2.140425531914892E-4      5.254193479866023E-12
2.1446808510638282E-4     5.205520171799041E-12
2.1489361702127643E-4     5.157024062952451E-12
2.1531914893617004E-4     5.108705153326258E-12
2.1574468085106365E-4     5.060563442920459E-12
2.1617021276595726E-4     5.012598931735053E-12
2.1659574468085087E-4     4.9648116197700426E-12
2.170212765957445E-4      4.917205060160327E-12
2.1744680851063815E-4     4.869782490597181E-12
2.1787234042553176E-4     4.822543911080606E-12
2.1829787234042537E-4     4.7754893216106015E-12
2.1872340425531898E-4     4.7286187221871685E-12
2.1914893617021265E-4     4.681932112810305E-12
2.1957446808510626E-4     4.635429493480012E-12
2.199999999999999E-4      4.58911432036097E-12
2.2042553191489348E-4     4.542989715109564E-12
2.208510638297871E-4      4.497055677725794E-12
2.2127659574468073E-4     4.45131220820966E-12
2.2170212765957432E-4     4.405759306561162E-12
2.2212765957446796E-4     4.3603969727803E-12
2.2255319148936157E-4     4.315225206867074E-12
2.229787234042552E-4      4.270247364087434E-12
2.234042553191488E-4      4.2254664468228095E-12
2.238297872340424E-4      4.180882455073198E-12
2.2425531914893604E-4     4.136495388838602E-12
2.2468085106382965E-4     4.0923052481190204E-12
2.2510638297872326E-4     4.048312032914452E-12
2.2553191489361687E-4     4.004515743224899E-12
2.2595744680851048E-4     3.960919629652151E-12
2.2638297872340412E-4     3.917526572250597E-12
2.268085106382977E-4      3.874336571020234E-12
2.2723404255319137E-4     3.8313496259610635E-12
2.2765957446808498E-4     3.788565737073088E-12
2.280851063829786E-4      3.745984904356302E-12
2.2851063829787223E-4     3.703607127810709E-12
2.2893617021276587E-4     3.661435549777423E-12
2.2936170212765948E-4     3.6194729251240458E-12
2.2978723404255307E-4     3.5777192538505764E-12
2.302127659574467E-4      3.536174535957016E-12
2.3063829787234032E-4     3.4948387714433647E-12
2.3106382978723393E-4     3.4537119603096206E-12
2.3148936170212754E-4     3.4127941025557857E-12
2.3191489361702118E-4     3.372088228839992E-12
2.3234042553191476E-4     3.3315969661801204E-12
2.3276595744680837E-4     3.2913203145761708E-12
2.3319148936170198E-4     3.2512582740281426E-12
2.336170212765956E-4      3.2114108445360383E-12
2.3404255319148923E-4     3.171778026099855E-12
2.3446808510638284E-4     3.1323598187195945E-12
2.3489361702127648E-4     3.0931591381271423E-12
2.3531914893617007E-4     3.054178481028838E-12
2.3574468085106368E-4     3.0154178474246803E-12
2.3617021276595732E-4     2.9768772373146697E-12
2.3659574468085093E-4     2.938556650698808E-12
2.3702127659574454E-4     2.9004560875770923E-12
2.3744680851063818E-4     2.8625755479495242E-12
2.378723404255318E-4      2.8249178295626503E-12
2.382978723404254E-4      2.787485296554096E-12
2.3872340425531898E-4     2.7502779489238605E-12
2.391489361702126E-4      2.713295786671944E-12
2.3957446808510623E-4     2.6765388097983473E-12
2.3999999999999982E-4     2.640007018303069E-12
2.4042553191489345E-4     2.60370041218611E-12
2.4085106382978707E-4     2.5676216683385167E-12
2.412765957446807E-4      2.5317730162801855E-12
2.417021276595743E-4      2.496154456011116E-12
2.4212765957446793E-4     2.460765987531309E-12
2.4255319148936154E-4     2.4256076108407658E-12
2.4297872340425515E-4     2.390679325939483E-12
2.434042553191488E-4      2.355981132827463E-12
2.4382978723404243E-4     2.3215155848631714E-12
2.4425531914893604E-4     2.287284775111411E-12
2.4468085106382965E-4     2.253288703572182E-12
2.4510638297872326E-4     2.219527370245485E-12
2.4553191489361687E-4     2.18600077513132E-12
2.4595744680851054E-4     2.152708918229686E-12
2.4638297872340415E-4     2.119651799540584E-12
2.4680851063829776E-4     2.0868318464100214E-12
2.4723404255319137E-4     2.054251013824914E-12
2.47659574468085E-4       2.021909301785261E-12
2.480851063829786E-4      1.989806710291064E-12
2.4851063829787226E-4     1.9579432393423226E-12
2.4893617021276587E-4     1.9263188889390358E-12
2.493617021276595E-4      1.8949336590812043E-12
2.497872340425531E-4      1.86378984882381E-12
2.502127659574467E-4      1.832889273670111E-12
2.5063829787234026E-4     1.802231933620106E-12
2.510638297872339E-4      1.7718178286737954E-12
2.5148936170212754E-4     1.74164695883118E-12
2.5191489361702115E-4     1.7117193240922585E-12
2.5234042553191476E-4     1.6820349244570317E-12
2.5276595744680837E-4     1.6525959286156977E-12
2.53191489361702E-4       1.6234040114016266E-12
2.536170212765956E-4      1.5944591728148182E-12
2.540425531914892E-4      1.5657614128552729E-12
2.5446808510638287E-4     1.5373107315229907E-12
2.548936170212765E-4      1.509107128817971E-12
2.553191489361701E-4      1.4811506047402146E-12
2.557446808510637E-4      1.4534431957493288E-12
2.561702127659573E-4      1.425986435044259E-12
2.565957446808509E-4      1.3987803226250045E-12
2.570212765957446E-4      1.3718248584915662E-12
2.574468085106382E-4      1.345120042643944E-12
2.578723404255318E-4      1.318665875082137E-12
2.582978723404254E-4      1.2924623558061464E-12
2.587234042553191E-4      1.2665113873903465E-12