% Model:              PLacek_MembTVNJ_ArticleDims_Rh100um_hg10um_To2MHz_PHedit.mph
% Version:            COMSOL 6.3.0.420
% Date:               Aug 12 2025, 09:39
% Dimension:          1
% Nodes:              1801
% Expressions:        1
% Description:        Line graph
% Arc length (m)          imag(xi)
0                         2.3582803583546134E-11
1.6835192320072636E-7     2.358277491148303E-11
3.367038464014527E-7      2.3582688897537395E-11
5.050557696021791E-7      2.358254554170922E-11
6.734076928029054E-7      2.3582344843998513E-11
8.417596160036319E-7      2.358208680440527E-11
1.0101115392043582E-6     2.3581771422929494E-11
1.1801802473622774E-6     2.3581394606106804E-11
1.3502489555201964E-6     2.358095928020192E-11
1.5203176636781154E-6     2.3580465445214834E-11
1.6903863718360344E-6     2.357991310114555E-11
1.8604550799939534E-6     2.3579302247994078E-11
2.0305237881518723E-6     2.3578632885760403E-11
2.200592664946635E-6      2.357790501812203E-11
2.370661541741397E-6      2.3577118657733072E-11
2.5407304185361593E-6     2.3576273804593517E-11
2.710799295330922E-6      2.357537045870337E-11
2.880868172125684E-6      2.3574408620062634E-11
3.0509370489204466E-6     2.3573388288671303E-11
3.2210059257152087E-6     2.3572309473162023E-11
3.3910748025099717E-6     2.3571172189682376E-11
3.5611436793047335E-6     2.3569976438232357E-11
3.731212556099496E-6      2.3568722218811976E-11
3.901281432894258E-6      2.3567409531421228E-11
4.07135030968902E-6       2.3566038376060113E-11
4.2414191864837825E-6     2.3564608765556876E-11
4.411488063278545E-6      2.3563120720158597E-11
4.581556940073307E-6      2.3561574239865273E-11
4.751625816868069E-6      2.355996932467691E-11
4.921694693662831E-6      2.3558305974593508E-11
5.091763570457593E-6      2.355658418961507E-11
5.261832447252356E-6      2.355480398667089E-11
5.4319013240471185E-6     2.355296539003482E-11
5.601970200841881E-6      2.3551068399706876E-11
5.772039077636643E-6      2.3549113015687038E-11
5.942107954431407E-6      2.354709923797533E-11
6.112176831226169E-6      2.354502706657173E-11
6.282245708020931E-6      2.3542896522397633E-11
6.452314584815693E-6      2.3540707633894196E-11
6.622383461610455E-6      2.3538460401061418E-11
6.7924523384052175E-6     2.3536154823899303E-11
6.96252121519998E-6       2.3533790902407854E-11
7.132590091994742E-6      2.3531368636587068E-11
7.302658968789505E-6      2.35288880513617E-11
7.472727845584267E-6      2.352634917934833E-11
7.642796722379028E-6      2.352375202054695E-11
7.812865599173792E-6      2.3521096574957572E-11
7.982934475968554E-6      2.3518382842580195E-11
8.153003352763316E-6      2.3515610823414814E-11
8.323072229558079E-6      2.3512780546404468E-11
8.493141106352842E-6      2.3509892048354462E-11
8.663209983147605E-6      2.3506945329264793E-11
8.833278859942367E-6      2.3503940389135464E-11
9.003347736737129E-6      2.350087722796647E-11
9.173416613531891E-6      2.3497755845757815E-11
9.343485490326653E-6      2.349457627549877E-11
9.513554367121415E-6      2.349133855816238E-11
9.683623243916178E-6      2.3488042693748643E-11
9.853692120710938E-6      2.348468868225756E-11
1.00237609975057E-5       2.3481276523689137E-11
1.0193829874300462E-5     2.3477806218043365E-11
1.0363898751095225E-5     2.3474277802366598E-11
1.0533967627889988E-5     2.3470691321778618E-11
1.070403650468475E-5      2.3467046776279415E-11
1.0874105381479513E-5     2.3463344165868997E-11
1.1044174258274277E-5     2.3459583490547365E-11
1.1214243135069039E-5     2.3455764750314515E-11
1.1384312011863803E-5     2.345188798627622E-11
1.1554380888658565E-5     2.3447953247683384E-11
1.1724449765453327E-5     2.344396053453601E-11
1.1894518642248089E-5     2.3439909846834092E-11
1.2064587519042851E-5     2.3435801184577642E-11
1.2234656395837613E-5     2.343163454776665E-11
1.2404725272632376E-5     2.3427409981571228E-11
1.257479414942714E-5      2.3423127539357884E-11
1.27448630262219E-5       2.3418787221126616E-11
1.2914931903016664E-5     2.3414389026877428E-11
1.3085000779811424E-5     2.3409932956610315E-11
1.3255069656606186E-5     2.340541901032528E-11
1.3425138533400948E-5     2.3400847237265578E-11
1.3595207410195712E-5     2.3396217694894343E-11
1.3765276286990473E-5     2.3391530383211582E-11
1.3935345163785237E-5     2.3386785302217292E-11
1.4105414040579997E-5     2.3381982451911475E-11
1.427548291737476E-5      2.337712183229413E-11
1.4445551794169521E-5     2.3372203496688322E-11
1.4615620670964285E-5     2.3367227506635408E-11
1.4785689547759046E-5     2.336219386213539E-11
1.495575842455381E-5      2.335710256318827E-11
1.5125827301348572E-5     2.335195360979405E-11
1.5295896178143334E-5     2.3346747001952726E-11
1.5465965054938098E-5     2.33414827970709E-11
1.5636033931732858E-5     2.3336161060750733E-11
1.580610280852762E-5      2.333078179299223E-11
1.5976171685322383E-5     2.332534499379539E-11
1.6146240562117146E-5     2.3319850663160214E-11
1.6316309438911907E-5     2.33142988010867E-11
1.648637831570667E-5      2.3308689469063992E-11
1.665644719250143E-5      2.3303022736741382E-11
1.6826516069296195E-5     2.3297298604118872E-11
1.6996584946090956E-5     2.329151707119646E-11
1.716665382288572E-5      2.3285678137974157E-11
1.733672269968048E-5      2.3279781804451947E-11
1.7506791576475244E-5     2.327382813619988E-11
1.7676860453270008E-5     2.3267817206899886E-11
1.7846929330064768E-5     2.3261749016551962E-11
1.8016998206859532E-5     2.325562356515611E-11
1.8187067083654292E-5     2.3249440852712334E-11
1.8357135960449056E-5     2.324320087922063E-11
1.852720483724382E-5      2.3236903714317273E-11
1.8697273714038584E-5     2.3230549435714435E-11
1.8867342590833344E-5     2.3224138043412118E-11
1.9037411467628108E-5     2.3217669537410323E-11
1.9207480344422872E-5     2.3211143917709053E-11
1.9377549221217633E-5     2.3204561184308304E-11
1.9547618098012396E-5     2.319792141089794E-11
1.9717686974807157E-5     2.3191224679217538E-11
1.9887755851601917E-5     2.3184470989267115E-11
2.005782472839668E-5      2.317766034104666E-11
2.0227893605191438E-5     2.317079273455618E-11
2.0397962481986202E-5     2.316386816979567E-11
2.0568031358780966E-5     2.3156886724492918E-11
2.073810023557573E-5      2.3149848484412433E-11
2.090816911237049E-5      2.3142753449554206E-11
2.1078237989165254E-5     2.3135601619918242E-11
2.1248306865960018E-5     2.3128392995504537E-11
2.141837574275478E-5      2.3121127576313097E-11
2.1588444619549542E-5     2.3113805444096027E-11
2.1758513496344303E-5     2.3106426688638106E-11
2.1928582373139063E-5     2.3098991309939337E-11
2.2098651249933827E-5     2.3091499307999716E-11
2.2268720126728584E-5     2.3083950682819254E-11
2.2438789003523348E-5     2.3076345434397934E-11
2.2608857880318112E-5     2.306868364850032E-11
2.2778926757112876E-5     2.3060965418924197E-11
2.2948995633907636E-5     2.305319074566957E-11
2.3119064510702397E-5     2.3045359628736433E-11
2.3289133387497164E-5     2.303747206812479E-11
2.3459202264291924E-5     2.302952806383464E-11
2.3629271141086688E-5     2.3021527705628953E-11
2.379934001788145E-5      2.3013471091312685E-11
2.396940889467621E-5      2.3005358220885838E-11
2.4139477771470973E-5     2.299718909434841E-11
2.4309546648265737E-5     2.2988963711700404E-11
2.4479615525060497E-5     2.2980682072941818E-11
2.464968440185526E-5      2.2972344271821442E-11
2.481975327865002E-5      2.2963950410144514E-11
2.4989822155444785E-5     2.2955500487911034E-11
2.515989103223955E-5      2.2946994505121006E-11
2.532995990903431E-5      2.2938432461774424E-11
2.5500028785829074E-5     2.2929814357871292E-11
2.5670097662623834E-5     2.2921140291134736E-11
2.5840166539418598E-5     2.2912410367361373E-11
2.6010235416213362E-5     2.2903624586551205E-11
2.6180304293008122E-5     2.289478294870423E-11
2.6350373169802883E-5     2.288588545382045E-11
2.6520442046597647E-5     2.2876932101899865E-11
2.669051092339241E-5      2.2867922994626897E-11
2.686057980018717E-5      2.285885824178135E-11
2.703064867698193E-5      2.2849737843363235E-11
2.7200717553776692E-5     2.284056179937254E-11
2.7370786430571456E-5     2.283133010980928E-11
2.7540855307366216E-5     2.2822042774673437E-11
2.771092418416098E-5      2.2812699899599277E-11
2.7880993060955744E-5     2.280330159833972E-11
2.8051061937750504E-5     2.279384787089475E-11
2.8221130814545265E-5     2.2784338717264382E-11
2.839119969134003E-5      2.2774774137448608E-11
2.8561268568134793E-5     2.2765154131447433E-11
2.8731337444929556E-5     2.2755478808832597E-11
2.890140632172432E-5      2.2745748287319767E-11
2.907147519851908E-5      2.2735962566908943E-11
2.9241544075313845E-5     2.2726121647600117E-11
2.9411612952108605E-5     2.2716225529393306E-11
2.958168182890337E-5      2.2706274212288495E-11
2.975175070569813E-5      2.2696267809782617E-11
2.9921819582492897E-5     2.268620644354348E-11
3.0091888459287654E-5     2.2676090113571078E-11
3.0261957336082418E-5     2.2665918819865418E-11
3.0432026212877178E-5     2.2655692562426497E-11
3.060209508967194E-5      2.2645411341254313E-11
3.07721639664667E-5       2.2635075273763103E-11
3.0942232843261466E-5     2.262468448555679E-11
3.111230172005623E-5      2.2614238976635377E-11
3.1282370596850994E-5     2.2603738746998856E-11
3.145243947364575E-5      2.2593183796647236E-11
3.1622508350440515E-5     2.2582574125580506E-11
3.179257722723528E-5      2.257190985511398E-11
3.196264610403004E-5      2.2561191114778635E-11
3.21327149808248E-5       2.2550417904574465E-11
3.2302783857619563E-5     2.253959022450147E-11
3.247285273441433E-5      2.252870807455966E-11
3.264292161120909E-5      2.2517771454749026E-11
3.2812990488003855E-5     2.2506780490267598E-11
3.298305936479862E-5      2.2495735314567972E-11
3.315312824159338E-5      2.248463592765014E-11
3.332319711838814E-5      2.2473482329514113E-11
3.3493265995182904E-5     2.246227452015988E-11
3.366333487197767E-5      2.2451012499587454E-11
3.383340374877243E-5      2.24396963968592E-11
3.400347262556719E-5      2.2428326349342752E-11
3.417354150236195E-5      2.2416902357038117E-11
3.434361037915671E-5      2.240542441994529E-11
3.4513679255951466E-5     2.2393892538064278E-11
3.468374813274623E-5      2.2382306711395074E-11
3.4853817009540994E-5     2.2370667072846485E-11
3.502388588633576E-5      2.2358973763694616E-11
3.519395476313052E-5      2.2347226783939462E-11
3.5364023639925286E-5     2.2335426133581022E-11
3.553409251672005E-5      2.23235718126193E-11
3.5704161393514813E-5     2.2311663821054292E-11
3.587423027030958E-5      2.2299702295626133E-11
3.604429914710434E-5      2.2287687381509435E-11
3.6214368023899105E-5     2.2275619078704207E-11
3.638443690069387E-5      2.2263497387210442E-11
3.655450577748863E-5      2.2251322307028145E-11
3.672457465428339E-5      2.2239093838157314E-11
3.6894643531078154E-5     2.2226812121153634E-11
3.706471240787292E-5      2.22144773050808E-11
3.7234781284667675E-5     2.2202089389938827E-11
3.740485016146244E-5      2.2189648375727707E-11
3.7574919038257195E-5     2.2177154262447448E-11
3.774498791505196E-5      2.2164607050098043E-11
3.791505679184672E-5      2.2152006883036982E-11
3.808512566864148E-5      2.2139353914205482E-11
3.8255194545436244E-5     2.2126648143603536E-11
3.842526342223101E-5      2.2113889571231148E-11
3.8595332299025765E-5     2.2101078197088323E-11
3.876540117582053E-5      2.2088214021175053E-11
3.893547005261529E-5      2.207529719163906E-11
3.910553892941006E-5      2.2062327865284864E-11
3.927560780620482E-5      2.2049306042112464E-11
3.9445676682999584E-5     2.203623172212186E-11
3.961574555979435E-5      2.2023104905313063E-11
3.978581443658911E-5      2.200992559168606E-11
3.995588331338387E-5      2.1996693933164737E-11
4.012595219017863E-5      2.198341009040541E-11
4.02960210669734E-5       2.1970074063408083E-11
4.0466089943768154E-5     2.1956685852172754E-11
4.063615882056292E-5      2.1943245456699418E-11
4.0806227697357675E-5     2.192975287698808E-11
4.097629657415244E-5      2.1916208268722096E-11
4.11463654509472E-5       2.1902611796401485E-11
4.1316434327741966E-5     2.1888963460026236E-11
4.148650320453673E-5      2.1875263259596352E-11
4.165657208133149E-5      2.1861511195111837E-11
4.182664095812625E-5      2.1847707266572684E-11
4.1996709834921015E-5     2.1833851633402394E-11
4.216677871171578E-5      2.181994446393991E-11
4.233684758851054E-5      2.1805985758185225E-11
4.2506916465305307E-5     2.1791975516138345E-11
4.267698534210007E-5      2.1777913737799274E-11
4.2847054218894834E-5     2.1763800423168005E-11
4.30171230956896E-5       2.1749635735387374E-11
4.3187191972484355E-5     2.1735419846632187E-11
4.335726084927912E-5      2.1721152756902462E-11
4.3527329726073876E-5     2.170683446619819E-11
4.369739860286864E-5      2.1692464974519373E-11
4.38674674796634E-5       2.167804428186601E-11
4.403753635645816E-5      2.1663572555083065E-11
4.4207605233252925E-5     2.164904997017476E-11
4.437767411004769E-5      2.1634476527141095E-11
4.454774298684245E-5      2.1619852225982067E-11
4.471781186363721E-5      2.1605177066697674E-11
4.4887880740431973E-5     2.1590451049287924E-11
4.505794961722674E-5      2.1575674344286363E-11
4.52280184940215E-5       2.1560847131517884E-11
4.539808737081626E-5      2.1545969410982476E-11
4.556815624761102E-5      2.1531041182680146E-11
4.5738225124405786E-5     2.1516062446610896E-11
4.590829400120055E-5      2.1501033202774724E-11
4.6078362877995314E-5     2.148595362536281E-11
4.624843175479008E-5      2.1470823898029292E-11
4.641850063158484E-5      2.1455644020774165E-11
4.65885695083796E-5       2.1440413993597434E-11
4.675863838517436E-5      2.1425133816499102E-11
4.6928707261969126E-5     2.1409803489479164E-11
4.709877613876389E-5      2.139442319040585E-11
4.7268845015558654E-5     2.137899310671438E-11
4.743891389235341E-5      2.1363513238404745E-11
4.7608982769148175E-5     2.134798358547696E-11
4.777905164594294E-5      2.1332404147931014E-11
4.79491205227377E-5       2.1316774925766915E-11
4.8119189399532466E-5     2.1301096100522193E-11
4.828925827632723E-5      2.1285367863414244E-11
4.845932715312199E-5      2.1269590214443075E-11
4.8629396029916744E-5     2.1253763153608676E-11
4.8799464906711515E-5     2.1237886680911057E-11
4.896953378350627E-5      2.1221960796350208E-11
4.9139602660301036E-5     2.120598568507572E-11
4.93096715370958E-5       2.1189961542120128E-11
4.947974041389056E-5      2.1173888367483422E-11
4.9649809290685314E-5     2.1157766161165613E-11
4.981987816748008E-5      2.11415949231667E-11
4.998994704427484E-5      2.112537465348668E-11
5.0160015921069605E-5     2.110910554088527E-11
5.033008479786437E-5      2.1092787784196975E-11
5.050015367465913E-5      2.1076421383421794E-11
5.067022255145389E-5      2.1060006338559725E-11
5.0840291428248654E-5     2.104354264961078E-11
5.101036030504342E-5      2.102703031657494E-11
5.1180429181838175E-5     2.1010469531811153E-11
5.135049805863294E-5      2.0993860497951502E-11
5.15205669354277E-5       2.0977203214995995E-11
5.169063581222245E-5      2.096049768294463E-11
5.1860704689017224E-5     2.0943743901797406E-11
5.203077356581198E-5      2.0926941871554323E-11
5.2200842442606745E-5     2.0910091788164664E-11
5.237091131940151E-5      2.0893193858054105E-11
5.254098019619627E-5      2.0876248081222637E-11
5.2711049072991036E-5     2.085925445767027E-11
5.28811179497858E-5       2.0842212987397E-11
5.3051186826580564E-5     2.0825123670402822E-11
5.322125570337533E-5      2.080798670621457E-11
5.339132458017009E-5      2.079080230505405E-11
5.3561393456964855E-5     2.0773570466921257E-11
5.373146233375962E-5      2.075629119181619E-11
5.390153121055438E-5      2.0738964479738848E-11
5.407160008734914E-5      2.072159033068924E-11
5.4241668964143904E-5     2.0704168947753928E-11
5.441173784093867E-5      2.068670054496091E-11
5.4581806717733425E-5     2.066918512231019E-11
5.475187559452819E-5      2.065162267980177E-11
5.492194447132294E-5      2.0634013217435643E-11
5.50920133481177E-5       2.0616356735211815E-11
5.526208222491247E-5      2.0598653439750807E-11
5.543215110170724E-5      2.0580903548907564E-11
5.5602219978501995E-5     2.056310706268208E-11
5.577228885529676E-5      2.0545263981074362E-11
5.594235773209153E-5      2.052737430408441E-11
5.611242660888629E-5      2.0509438031712222E-11
5.628249548568105E-5      2.0491455374072972E-11
5.6452564362475814E-5     2.0473426552883943E-11
5.662263323927058E-5      2.045535156814514E-11
5.679270211606533E-5      2.0437230419856564E-11
5.69627709928601E-5       2.0419063108018215E-11
5.7132839869654856E-5     2.0400849632630095E-11
5.730290874644962E-5      2.0382590207247247E-11
5.747297762324438E-5      2.036428505750047E-11
5.764304650003915E-5      2.0345934183389775E-11
5.781311537683391E-5      2.032753758491515E-11
5.7983184253628675E-5     2.030909526207661E-11
5.815325313042344E-5      2.029060721487414E-11
5.83233220072182E-5       2.0272073660228762E-11
5.8493390884012966E-5     2.0253494827758474E-11
5.866345976080773E-5      2.023487071746328E-11
5.8833528637602494E-5     2.021620132934318E-11
5.900359751439725E-5      2.0197486663398168E-11
5.9173666391192015E-5     2.017872671962825E-11
5.934373526798678E-5      2.0159921718235108E-11
5.951380414478154E-5      2.01410718929161E-11
5.96838730215763E-5       2.012217724367123E-11
5.9853941898371064E-5     2.01032377705005E-11
6.0024010775165814E-5     2.0084253473403914E-11
6.019407965196058E-5      2.0065224352381462E-11
6.036414852875534E-5      2.0046150630827166E-11
6.0534217405550106E-5     2.0027032546627496E-11
6.070428628234486E-5      2.0007870099782463E-11
6.087435515913962E-5      1.998866329029206E-11
6.104442403593438E-5      1.996941211815629E-11
6.121449291272915E-5      1.9950116583375152E-11
6.138456178952391E-5      1.9930776912447568E-11
6.155463066631868E-5      1.9911393347583263E-11
6.172469954311344E-5      1.9891965888782244E-11
6.18947684199082E-5       1.987249453604451E-11
6.206483729670297E-5      1.9852979289370062E-11
6.223490617349773E-5      1.98334201487589E-11
6.24049750502925E-5       1.981381734375486E-11
6.257504392708726E-5      1.979417112100474E-11
6.274511280388202E-5      1.9774481480508538E-11
6.291518168067679E-5      1.975474842226626E-11
6.308525055747155E-5      1.9734971946277896E-11
6.325531943426631E-5      1.971515205254345E-11
6.342538831106108E-5      1.9695288973635662E-11
6.359545718785583E-5      1.967538296070253E-11
6.376552606465059E-5      1.9655434013744052E-11
6.393559494144536E-5      1.9635442132760228E-11
6.41056638182401E-5       1.9615407317751058E-11
6.427573269503487E-5      1.9595329568716544E-11
6.444580157182963E-5      1.9575209121283818E-11
6.461587044862441E-5      1.9555046231130307E-11
6.478593932541916E-5      1.9534840898256015E-11
6.495600820221393E-5      1.951459312266094E-11
6.512607707900869E-5      1.9494302904345087E-11
6.529614595580345E-5      1.9473970243308452E-11
6.546621483259822E-5      1.945359537825955E-11
6.5636283709393E-5        1.9433178569442795E-11
6.580635258618774E-5      1.941271981685819E-11
6.597642146298251E-5      1.9392219120505738E-11
6.614649033977727E-5      1.937167648038544E-11
6.631655921657204E-5      1.935109189649729E-11
6.64866280933668E-5       1.9330465610639853E-11
6.665669697016156E-5      1.9309797887692527E-11
6.682676584695633E-5      1.9289088727655313E-11
6.699683472375108E-5      1.9268338130528214E-11
6.716690360054584E-5      1.9247546096311233E-11
6.73369724773406E-5       1.922671262500436E-11
6.750704135413537E-5      1.9205837961491345E-11
6.767711023093013E-5      1.9184922375383267E-11
6.784717910772488E-5      1.916396586668012E-11
6.801724798451965E-5      1.9142968435381913E-11
6.818731686131441E-5      1.9121930081488642E-11
6.835738573810918E-5      1.9100850805000304E-11
6.852745461490394E-5      1.9079730853862783E-11
6.86975234916987E-5       1.9058570502552533E-11
6.886759236849347E-5      1.9037369751069556E-11
6.903766124528822E-5      1.901612859941385E-11
6.920773012208298E-5      1.8994847047585423E-11
6.937779899887774E-5      1.8973525095584264E-11
6.954786787567251E-5      1.895216299437978E-11
6.971793675246727E-5      1.8930761023483615E-11
6.988800562926202E-5      1.8909319182895763E-11
7.005807450605679E-5      1.8887837472616232E-11
7.022814338285155E-5      1.8866315892645018E-11
7.039821225964631E-5      1.884475444298212E-11
7.056828113644108E-5      1.8823153377578604E-11
7.073835001323584E-5      1.88015129811778E-11
7.09084188900306E-5       1.8779833253779706E-11
7.107848776682537E-5      1.875811419538433E-11
7.124855664362013E-5      1.873635580599167E-11
7.14186255204149E-5       1.8714558085601723E-11
7.158869439720966E-5      1.869272129110805E-11
7.175876327400443E-5      1.8670845712708747E-11
7.192883215079919E-5      1.8648931350403816E-11
7.209890102759395E-5      1.862697820419326E-11
7.226896990438872E-5      1.8604986274077082E-11
7.243903878118348E-5      1.8582955560055273E-11
7.260910765797824E-5      1.856088632191661E-11
7.277917653477301E-5      1.8538778855579397E-11
7.294924541156777E-5      1.851663316104364E-11
7.311931428836252E-5      1.8494449238309334E-11
7.32893831651573E-5       1.8472227087376482E-11
7.345945204195205E-5      1.8449966708245083E-11
7.362952091874681E-5      1.8427668363547497E-11
7.379958979554158E-5      1.8405332355225125E-11
7.396965867233633E-5      1.8382958683277976E-11
7.413972754913108E-5      1.8360547347706043E-11
7.430979642592586E-5      1.8338098348509337E-11
7.44798653027206E-5       1.831561168568785E-11
7.464993417951538E-5      1.8293087624676592E-11
7.482000305631013E-5      1.8270526473764053E-11
7.499007193310491E-5      1.8247928232950234E-11
7.516014080989968E-5      1.8225292902235134E-11
7.533020968669444E-5      1.8202620481618757E-11
7.55002785634892E-5       1.81799109711011E-11
7.567034744028397E-5      1.8157164638919258E-11
7.584041631707873E-5      1.813438180002964E-11
7.601048519387348E-5      1.8111562454432232E-11
7.618055407066824E-5      1.8088706602127052E-11
7.6350622947463E-5        1.8065814243114094E-11
7.652069182425776E-5      1.8042885377393356E-11
7.669076070105252E-5      1.8019920276048435E-11
7.686082957784729E-5      1.799691926102533E-11
7.703089845464205E-5      1.7973882332324036E-11
7.72009673314368E-5       1.795080948994456E-11
7.737103620823156E-5      1.7927700733886905E-11
7.754110508502633E-5      1.7904556064151063E-11
7.771117396182109E-5      1.7881375754695705E-11
7.788124283861586E-5      1.7858160134835698E-11
7.805131171541062E-5      1.783490920457104E-11
7.822138059220538E-5      1.7811622963901732E-11
7.839144946900015E-5      1.7788301412827774E-11
7.856151834579491E-5      1.776494455134917E-11
7.873158722258968E-5      1.77415526562935E-11
7.890165609938444E-5      1.7718126064794206E-11
7.907172497617919E-5      1.7694664776851283E-11
7.924179385297395E-5      1.7671168792464732E-11
7.941186272976872E-5      1.7647638111634556E-11
7.958193160656348E-5      1.7624072734360748E-11
7.975200048335824E-5      1.760047294034476E-11
7.992206936015301E-5      1.757683907502058E-11
8.009213823694777E-5      1.75531711383882E-11
8.026220711374252E-5      1.7529469130447624E-11
8.04322759905373E-5       1.750573305119886E-11
8.060234486733205E-5      1.7481962900641898E-11
8.077241374412683E-5      1.745815896139068E-11
8.094248262092158E-5      1.7434321587687564E-11
8.111255149771634E-5      1.7410450779532556E-11
8.12826203745111E-5       1.7386546536925654E-11
8.145268925130588E-5      1.736260885986686E-11
8.162275812810063E-5      1.733863774835617E-11
8.179282700489541E-5      1.7314633487955878E-11
8.196289588169016E-5      1.729059644229559E-11
8.213296475848491E-5      1.726652661137531E-11
8.230303363527969E-5      1.7242423995195037E-11
8.247310251207444E-5      1.7218288593754774E-11
8.26431713888692E-5       1.7194120407054514E-11
8.281324026566398E-5      1.7169919723595782E-11
8.298330914245874E-5      1.7145686917100122E-11
8.31533780192535E-5       1.7121421987567538E-11
8.332344689604827E-5      1.7097124934998027E-11
8.349351577284304E-5      1.707279575939159E-11
8.36635846496378E-5       1.704843446074823E-11
8.383365352643258E-5      1.7024041330424207E-11
8.400372240322733E-5      1.699961675310846E-11
8.417379128002208E-5      1.6975160728800975E-11
8.434386015681686E-5      1.6950673257501762E-11
8.45139290336116E-5       1.6926154339210823E-11
8.468399791040637E-5      1.6901603973928152E-11
8.485406678720113E-5      1.6877022455859944E-11
8.50241356639959E-5       1.6852410181576252E-11
8.519420454079065E-5      1.6827767151077077E-11
8.536427341758541E-5      1.6803093364362418E-11
8.553434229438016E-5      1.677838882143228E-11
8.570441117117493E-5      1.6753653522286656E-11
8.587448004796969E-5      1.6728887763922732E-11
8.604454892476445E-5      1.6704091955912486E-11
8.621461780155922E-5      1.667926609825592E-11
8.638468667835397E-5      1.6654410190953027E-11
8.655475555514873E-5      1.6629524234003817E-11
8.67248244319435E-5       1.660460822740828E-11
8.689489330873826E-5      1.6579662470844977E-11
8.706496218553302E-5      1.6554687388285363E-11
8.723503106232779E-5      1.6529682979729443E-11
8.740509993912255E-5      1.650464924517721E-11
8.757516881591731E-5      1.647958618462867E-11
8.774523769271208E-5      1.6454493798083818E-11
8.791530656950684E-5      1.6429372388044437E-11
8.80853754463016E-5       1.6404222394339316E-11
8.825544432309636E-5      1.6379043816968447E-11
8.842551319989112E-5      1.635383665593184E-11
8.859558207668588E-5      1.6328600911229488E-11
8.876565095348065E-5      1.6303336582861394E-11
8.893571983027541E-5      1.6278043976403713E-11
8.910578870707019E-5      1.6252723549325097E-11
8.927585758386494E-5      1.622737530162554E-11
8.94459264606597E-5       1.620199923330505E-11
8.961599533745447E-5      1.6176595344363627E-11
8.978606421424923E-5      1.6151163634801266E-11
8.9956133091044E-5        1.6125704413849513E-11
9.012620196783876E-5      1.610021815863959E-11
9.029627084463352E-5      1.60747048691715E-11
9.046633972142827E-5      1.6049164545445246E-11
9.063640859822305E-5      1.6023597187460823E-11
9.08064774750178E-5       1.5998002795218234E-11
9.097654635181258E-5      1.5972381682830227E-11
9.114661522860733E-5      1.594673434912223E-11
9.131668410540209E-5      1.5921060794094244E-11
9.148675298219686E-5      1.5895361017746267E-11
9.165682185899162E-5      1.5869635020078305E-11
9.182689073578638E-5      1.5843882801090353E-11
9.199695961258116E-5      1.5818104681840837E-11
9.216702848937591E-5      1.5792301184706773E-11
9.233709736617066E-5      1.5766472309688146E-11
9.250716624296544E-5      1.5740618056784964E-11
9.267723511976019E-5      1.5714738425997225E-11
9.284730399655495E-5      1.5688833417324928E-11
9.301737287334972E-5      1.5662903361741352E-11
9.31874417501445E-5       1.5636948806672885E-11
9.335751062693924E-5      1.5610969752119528E-11
9.3527579503734E-5        1.5584966198081277E-11
9.369764838052876E-5      1.5558938144558136E-11
9.386771725732352E-5      1.5532885591550103E-11
9.403778613411829E-5      1.5506808883846846E-11
9.420785501091305E-5      1.54807085946882E-11
9.43779238877078E-5       1.5454584724074164E-11
9.454799276450256E-5      1.542843727200474E-11
9.471806164129733E-5      1.5402266238479924E-11
9.488813051809209E-5      1.5376071623499723E-11
9.505819939488686E-5      1.53498537903678E-11
9.522826827168162E-5      1.532361333762334E-11
9.539833714847638E-5      1.5297350265266347E-11
9.556840602527113E-5      1.527106457329682E-11
9.57384749020659E-5       1.524475626171476E-11
9.590854377886066E-5      1.5218425330520166E-11
9.607861265565543E-5      1.5192072166611047E-11
9.62486815324502E-5       1.5165697391391847E-11
9.641875040924495E-5      1.513930100486255E-11
9.658881928603972E-5      1.511288300702317E-11
9.675888816283448E-5      1.5086443397873705E-11
9.692895703962925E-5      1.5059982177414154E-11
9.709902591642401E-5      1.5033499760868802E-11
9.726909479321879E-5      1.500699678760396E-11
9.743916367001354E-5      1.498047325761962E-11
9.76092325468083E-5       1.4953929170915787E-11
9.777930142360306E-5      1.4927364527492467E-11
9.794937030039783E-5      1.490077932734965E-11
9.811943917719258E-5      1.4874174017347582E-11
9.828950805398736E-5      1.48475492474454E-11
9.84595769307821E-5       1.4820905017643112E-11
9.862964580757686E-5      1.479424132794071E-11
9.879971468437162E-5      1.47675581783382E-11
9.896978356116637E-5      1.474085556883558E-11
9.913985243796113E-5      1.4714133978747118E-11
9.930992131475591E-5      1.4687394059613493E-11
9.947999019155066E-5      1.4660635811434712E-11
9.965005906834544E-5      1.4633859234210775E-11
9.982012794514019E-5      1.460706432794168E-11
9.999019682193495E-5      1.458025109262743E-11
1.0016026569872972E-4     1.455342003775372E-11
1.003303345755245E-4      1.4526571807422454E-11
1.0050040345231925E-4     1.449970640163363E-11
1.0067047232911402E-4     1.4472823820387247E-11
1.0084054120590877E-4     1.4445924063683312E-11
1.0101061008270354E-4     1.4419007131521817E-11
1.011806789594983E-4      1.4392073558366964E-11
1.0135074783629308E-4     1.4365123973765478E-11
1.0152081671308783E-4     1.4338158377717348E-11
1.016908855898826E-4      1.4311176770222585E-11
1.0186095446667736E-4     1.4284179151281182E-11
1.0203102334347212E-4     1.4257165520893144E-11
1.0220109222026688E-4     1.4230136431499834E-11
1.0237116109706166E-4     1.4203092494061409E-11
1.0254122997385641E-4     1.4176033708577867E-11
1.0271129885065116E-4     1.414896007504921E-11
1.0288136772744593E-4     1.412187159347544E-11
1.0305143660424069E-4     1.4094768263856553E-11
1.0322150548103545E-4     1.4067650649339347E-11
1.0339157435783022E-4     1.4040519341339783E-11
1.0356164323462497E-4     1.4013374339857859E-11