% Model:              ModelMicPlate_Rh20um_hg5um_Refined_MaterialDefPolySilicon.mph
% Version:            COMSOL 6.3.0.335
% Date:               May 21 2025, 13:50
% Dimension:          1
% Nodes:              708
% Expressions:        1
% Description:        Line graph
% Arc length (m)          imag(w2)
0                         -4.265767851187073E-13
4.0816326530612243E-7     -4.2656815230392546E-13
8.163265306122445E-7      -4.2654233209779263E-13
1.224489795918367E-6      -4.264993245003084E-13
1.632653061224489E-6      -4.264391295114733E-13
2.0408163265306117E-6     -4.26361747131287E-13
2.448979591836734E-6      -4.2626717735974953E-13
2.857142857142856E-6      -4.2615542019686107E-13
3.265306122448978E-6      -4.2602648231238924E-13
3.6734693877551007E-6     -4.258804342796469E-13
4.0816326530612225E-6     -4.2571727609863365E-13
4.489795918367345E-6      -4.2553700776934995E-13
4.897959183673468E-6      -4.253396292917955E-13
5.30612244897959E-6       -4.251251406659704E-13
5.714285714285712E-6      -4.2489354189187466E-13
6.1224489795918346E-6     -4.2464488101344117E-13
6.530612244897958E-6      -4.2437926532527116E-13
6.9387755102040806E-6     -4.2409669482736427E-13
7.3469387755102015E-6     -4.2379716951972095E-13
7.755102040816326E-6      -4.2348068940234095E-13
8.163265306122448E-6      -4.231472544752243E-13
8.571428571428571E-6      -4.2279686473837096E-13
8.979591836734694E-6      -4.224296005355735E-13
9.387755102040816E-6      -4.220456146982061E-13
9.795918367346939E-6      -4.216449072262685E-13
1.020408163265306E-5      -4.2122747811976103E-13
1.0612244897959184E-5     -4.207933273786836E-13
1.1020408163265308E-5     -4.2034245500303604E-13
1.1428571428571429E-5     -4.198748609928185E-13
1.1836734693877552E-5     -4.1939065351653963E-13
1.2244897959183674E-5     -4.188900299502685E-13
1.2653061224489795E-5     -4.1837299029400494E-13
1.3061224489795918E-5     -4.1783953454774913E-13
1.346938775510204E-5      -4.1728966271150094E-13
1.3877551020408165E-5     -4.167233747852604E-13
1.4285714285714285E-5     -4.1614067076902753E-13
1.4693877551020408E-5     -4.1554170297839843E-13
1.510204081632653E-5      -4.149266938097278E-13
1.5510204081632655E-5     -4.1429564326301546E-13
1.5918367346938776E-5     -4.136485513382618E-13
1.63265306122449E-5       -4.129854180354665E-13
1.6734693877551024E-5     -4.123062433546297E-13
1.7142857142857145E-5     -4.116110272957513E-13
1.755102040816327E-5      -4.108999666448172E-13
1.795918367346939E-5      -4.1017330866955635E-13
1.8367346938775515E-5     -4.094310533699686E-13
1.8775510204081636E-5     -4.086732007460542E-13
1.9183673469387756E-5     -4.0789975079781304E-13
1.959183673469388E-5      -4.0711070352524507E-13
2.0E-5                    -4.0630605892835035E-13
2.042553191489362E-5      -4.0545070258389747E-13
2.0851063829787234E-5     -4.0457897124103865E-13
2.1276595744680852E-5     -4.0369086489977396E-13
2.1702127659574467E-5     -4.027863835601034E-13
2.212765957446808E-5      -4.01865527222027E-13
2.2553191489361703E-5     -4.009282958855446E-13
2.2978723404255317E-5     -3.9997468955065636E-13
2.3404255319148935E-5     -3.9900484597440124E-13
2.382978723404255E-5      -3.9801923671218606E-13
2.4255319148936165E-5     -3.970178617640109E-13
2.4680851063829783E-5     -3.9600072112987576E-13
2.51063829787234E-5       -3.949678148097807E-13
2.5531914893617015E-5     -3.939191428037255E-13
2.5957446808510633E-5     -3.9285470511171045E-13
2.638297872340425E-5      -3.91774727187758E-13
2.6808510638297866E-5     -3.9067962723526254E-13
2.7234042553191484E-5     -3.8956940525422417E-13
2.7659574468085102E-5     -3.8844406124464283E-13
2.808510638297872E-5      -3.873035952065186E-13
2.8510638297872334E-5     -3.8614800713985124E-13
2.8936170212765952E-5     -3.849772970446411E-13
2.936170212765957E-5      -3.8379173980436743E-13
2.9787234042553185E-5     -3.82591736527618E-13
3.02127659574468E-5       -3.8137728721439266E-13
3.063829787234042E-5      -3.801483918646915E-13
3.106382978723404E-5      -3.789050504785145E-13
3.148936170212765E-5      -3.776472630558615E-13
3.191489361702127E-5      -3.7637502959673275E-13
3.2340425531914886E-5     -3.7508864877347785E-13
3.2765957446808504E-5     -3.737885174652355E-13
3.319148936170212E-5      -3.7247463567200565E-13
3.361702127659574E-5      -3.7114700339378834E-13
3.404255319148936E-5      -3.698056206305837E-13
3.4468085106382976E-5     -3.6845048738239156E-13
3.4893617021276594E-5     -3.67081603649212E-13
3.531914893617021E-5      -3.656992832738046E-13
3.574468085106383E-5      -3.6430392007222126E-13
3.617021276595744E-5      -3.6289551404446185E-13
3.659574468085106E-5      -3.6147406519052636E-13
3.702127659574468E-5      -3.6003957351041504E-13
3.744680851063829E-5      -3.5859203900412753E-13
3.7872340425531907E-5     -3.5713146167166404E-13
3.8297872340425525E-5     -3.5565816587948564E-13
3.8723404255319136E-5     -3.5417254150132566E-13
3.914893617021275E-5      -3.52674588537184E-13
3.957446808510637E-5      -3.511643069870607E-13
3.999999999999998E-5      -3.496416968509559E-13
4.04255319148936E-5       -3.4810675812886923E-13
4.085106382978722E-5      -3.4655949082080113E-13
4.127659574468084E-5      -3.4500022643546035E-13
4.1702127659574455E-5     -3.434293498911277E-13
4.2127659574468066E-5     -3.4184686118780323E-13
4.255319148936169E-5      -3.4025276032548683E-13
4.29787234042553E-5       -3.386470473041787E-13
4.340425531914893E-5      -3.3702972212387854E-13
4.382978723404254E-5      -3.354007847845866E-13
4.4255319148936156E-5     -3.3376057121289494E-13
4.4680851063829774E-5     -3.321094605696251E-13
4.5106382978723385E-5     -3.3044745285477686E-13
4.5531914893616997E-5     -3.2877454806835053E-13
4.5957446808510615E-5     -3.2709074621034604E-13
4.638297872340423E-5      -3.2539604728076324E-13
4.680851063829785E-5      -3.2369045127960223E-13
4.7234042553191475E-5     -3.219742963150716E-13
4.765957446808508E-5      -3.202479552357642E-13
4.8085106382978704E-5     -3.1851142804168E-13
4.851063829787232E-5      -3.167647147328191E-13
4.893617021276594E-5      -3.150078153091815E-13
4.936170212765956E-5      -3.13240729770767E-13
4.9787234042553176E-5     -3.114634581175758E-13
5.02127659574468E-5       -3.0967633881710726E-13
5.0638297872340406E-5     -3.0787973808183346E-13
5.1063829787234024E-5     -3.0607365591175423E-13
5.148936170212764E-5      -3.042580923068696E-13
5.191489361702126E-5      -3.0243304726717973E-13
5.234042553191487E-5      -3.0059852079268436E-13
5.276595744680849E-5      -2.9875451288338367E-13
5.319148936170211E-5      -2.9690136090470136E-13
5.3617021276595725E-5     -2.950394243198738E-13
5.404255319148934E-5      -2.93168703128901E-13
5.446808510638296E-5      -2.91289197331783E-13
5.489361702127658E-5      -2.8940090692851987E-13
5.53191489361702E-5       -2.875038319191114E-13
5.5744680851063815E-5     -2.8559797230355777E-13
5.617021276595743E-5      -2.836836632042037E-13
5.6595744680851044E-5     -2.8176125740903167E-13
5.7021276595744655E-5     -2.7983075491804167E-13
5.744680851063827E-5      -2.7789215573123373E-13
5.7872340425531884E-5     -2.759454598486079E-13
5.82978723404255E-5       -2.7399066727016405E-13
5.8723404255319114E-5     -2.720277779959023E-13
5.914893617021274E-5      -2.700571240529006E-13
5.9574468085106356E-5     -2.6807905178945244E-13
5.999999999999997E-5      -2.6609356120555783E-13
6.042553191489359E-5      -2.6410065230121695E-13
6.085106382978722E-5      -2.621003250764296E-13
6.127659574468083E-5      -2.6009257953119576E-13
6.170212765957445E-5      -2.5807741566551556E-13
6.212765957446806E-5      -2.560551618170155E-13
6.255319148936169E-5      -2.5402615826973376E-13
6.297872340425529E-5      -2.519904050236702E-13
6.340425531914891E-5      -2.4994790207882505E-13
6.382978723404252E-5      -2.478986494351982E-13
6.425531914893613E-5      -2.4584264709278953E-13
6.468085106382975E-5      -2.4377989505159917E-13
6.510638297872337E-5      -2.4171071759421613E-13
6.553191489361698E-5      -2.396354494348041E-13
6.59574468085106E-5       -2.3755409057336313E-13
6.638297872340422E-5      -2.354666410098933E-13
6.680851063829784E-5      -2.333731007443946E-13
6.723404255319147E-5      -2.3127346977686685E-13
6.765957446808508E-5      -2.2916774810731027E-13
6.80851063829787E-5       -2.270562558008589E-13
6.851063829787231E-5      -2.2493932259224618E-13
6.893617021276593E-5      -2.2281694848147205E-13
6.936170212765955E-5      -2.2068913346853657E-13
6.978723404255316E-5      -2.1855587755343975E-13
7.021276595744679E-5      -2.1641718073618148E-13
7.06382978723404E-5       -2.1427304301676194E-13
7.106382978723402E-5      -2.121237802602827E-13
7.148936170212763E-5      -2.0996971788593407E-13
7.191489361702124E-5      -2.0781085589371615E-13
7.234042553191486E-5      -2.0564719428362882E-13
7.276595744680848E-5      -2.034787330556722E-13
7.31914893617021E-5       -2.0130547220984615E-13
7.361702127659572E-5      -1.9912741174615081E-13
7.404255319148934E-5      -1.9694486350121784E-13
7.446808510638294E-5      -1.947581492971032E-13
7.489361702127655E-5      -1.9256726913380675E-13
7.531914893617019E-5      -1.903722230113286E-13
7.574468085106379E-5      -1.8817301092966876E-13
7.617021276595741E-5      -1.859696328888271E-13
7.659574468085102E-5      -1.8376208888880374E-13
7.702127659574463E-5      -1.8155068703966567E-13
7.744680851063826E-5      -1.793357463189002E-13
7.787234042553187E-5      -1.771172667265072E-13
7.82978723404255E-5       -1.748952482624867E-13
7.87234042553191E-5       -1.7266969092683884E-13
7.914893617021272E-5      -1.7044059471956344E-13
7.957446808510634E-5      -1.6820795964066057E-13
7.999999999999997E-5      -1.6597209048513503E-13
8.042553191489356E-5      -1.6373330415116737E-13
8.085106382978717E-5      -1.614916006387575E-13
8.12765957446808E-5       -1.592469799479055E-13
8.170212765957441E-5      -1.5699944207861136E-13
8.212765957446802E-5      -1.5474898703087504E-13
8.255319148936163E-5      -1.524956148046966E-13
8.297872340425526E-5      -1.5023962737845547E-13
8.340425531914888E-5      -1.479813403310133E-13
8.38297872340425E-5       -1.457207536623701E-13
8.425531914893612E-5      -1.434578673725258E-13
8.468085106382974E-5      -1.4119268146148054E-13
8.510638297872335E-5      -1.3892519592923413E-13
8.553191489361698E-5      -1.3665541077578674E-13
8.59574468085106E-5       -1.34383625725684E-13
8.638297872340422E-5      -1.3211015577594614E-13
8.680851063829783E-5      -1.2983500092657317E-13
8.723404255319144E-5      -1.275581611775651E-13
8.765957446808508E-5      -1.252796365289219E-13
8.808510638297869E-5      -1.2299942698064356E-13
8.85106382978723E-5       -1.2071753253273014E-13
8.893617021276592E-5      -1.1843425126303693E-13
8.936170212765952E-5      -1.1614989828345574E-13
8.978723404255313E-5      -1.1386447359398662E-13
9.021276595744674E-5      -1.115779771946295E-13
9.063829787234035E-5      -1.0929040908538444E-13
9.106382978723398E-5      -1.0700176926625136E-13
9.148936170212759E-5      -1.0471205773723035E-13
9.191489361702122E-5      -1.0242157156197817E-13
9.234042553191483E-5      -1.0013062660624428E-13
9.276595744680844E-5      -9.78392228700286E-14
9.319148936170208E-5      -9.554736035333118E-14
9.361702127659569E-5      -9.325503905615204E-14
9.40425531914893E-5       -9.096225897849112E-14
9.446808510638292E-5      -8.866902012034848E-14
9.489361702127655E-5      -8.63756191682638E-14
9.531914893617015E-5      -8.408237330961003E-14
9.574468085106377E-5      -8.178928254438718E-14
9.617021276595738E-5      -7.949634687259521E-14
9.6595744680851E-5        -7.720356629423419E-14
9.702127659574462E-5      -7.491094080930405E-14
9.744680851063823E-5      -7.261847041780484E-14
9.787234042553185E-5      -7.032645205224291E-14
9.829787234042548E-5      -6.803520470394394E-14
9.872340425531908E-5      -6.574472837290795E-14
9.914893617021271E-5      -6.345502305913491E-14
9.957446808510633E-5      -6.116608876262487E-14
9.999999999999995E-5      -5.887792548337777E-14
1.0042553191489358E-4     -5.6590533221393675E-14
1.008510638297872E-4      -5.4304209748226957E-14
1.012765957446808E-4      -5.2019276242116854E-14
1.0170212765957441E-4     -4.973573270306332E-14
1.0212765957446803E-4     -4.745357913106637E-14
1.0255319148936166E-4     -4.5172815526126025E-14
1.0297872340425527E-4     -4.2893441888242245E-14
1.0340425531914888E-4     -4.061545821741507E-14
1.038297872340425E-4      -3.8339163670122947E-14
1.0425531914893612E-4     -3.6064881884821914E-14
1.0468085106382971E-4     -3.379261286151197E-14
1.0510638297872335E-4     -3.1522356600193125E-14
1.0553191489361695E-4     -2.925411310086538E-14
1.0595744680851058E-4     -2.698788236352871E-14
1.0638297872340419E-4     -2.4723664388183145E-14
1.068085106382978E-4      -2.2461760198841966E-14
1.0723404255319141E-4     -2.0202496048430194E-14
1.0765957446808503E-4     -1.7945871936947828E-14
1.0808510638297865E-4     -1.5691887864394862E-14
1.0851063829787227E-4     -1.3440543830771306E-14
1.0893617021276588E-4     -1.1191839836077147E-14
1.093617021276595E-4      -8.945775880312399E-15
1.0978723404255313E-4     -6.702655260996847E-15
1.1021276595744674E-4     -4.462806871434257E-15
1.1063829787234035E-4     -2.22623071162463E-15
1.1106382978723399E-4     7.073218432036544E-18
1.114893617021276E-4      2.237104918735738E-15
1.1191489361702123E-4     4.463864389286479E-15
1.1234042553191484E-4     6.6873516300842565E-15
1.1276595744680846E-4     8.907260753119679E-15
1.1319148936170207E-4     1.1123260334297767E-14
1.1361702127659569E-4     1.3335350373618514E-14
1.140425531914893E-4      1.5543530871081925E-14
1.1446808510638292E-4     1.7747801826688008E-14
1.1489361702127652E-4     1.9948163240436744E-14
1.1531914893617014E-4     2.2144615112328148E-14
1.1574468085106377E-4     2.4336848748441316E-14
1.1617021276595738E-4     2.6524530443237247E-14
1.1659574468085099E-4     2.870766019671593E-14
1.1702127659574462E-4     3.088623800887738E-14
1.1744680851063824E-4     3.3060263879721586E-14
1.1787234042553185E-4     3.522973780924854E-14
1.1829787234042546E-4     3.7394659797458264E-14
1.1872340425531909E-4     3.955471824063838E-14
1.191489361702127E-4      4.17095775451175E-14
1.1957446808510631E-4     4.3859237710895637E-14
1.1999999999999994E-4     4.600369873797278E-14
1.2042553191489355E-4     4.8142960626348927E-14
1.2085106382978716E-4     5.0277023376024076E-14
1.2127659574468078E-4     5.240588698699824E-14
1.2170212765957441E-4     5.452923696120593E-14
1.2212765957446802E-4     5.664673635701305E-14
1.2255319148936163E-4     5.875838517441957E-14
1.2297872340425524E-4     6.086418341342551E-14
1.2340425531914888E-4     6.29641310740309E-14
1.238297872340425E-4      6.505822815623568E-14
1.242553191489361E-4      6.714647466003988E-14
1.246808510638297E-4      6.922855333557908E-14
1.2510638297872332E-4     7.130412658014699E-14
1.2553191489361694E-4     7.337319439374361E-14
1.2595744680851055E-4     7.543575677636896E-14
1.2638297872340416E-4     7.749181372802302E-14
1.268085106382978E-4      7.954136524870576E-14
1.272340425531914E-4      8.158441133841725E-14
1.2765957446808505E-4     8.362063227105788E-14
1.2808510638297863E-4     8.564969061540987E-14
1.2851063829787224E-4     8.767158637147319E-14
1.2893617021276588E-4     8.968631953924787E-14
1.293617021276595E-4      9.169389011873391E-14
1.297872340425531E-4      9.369429810993126E-14
1.302127659574467E-4      9.568754351283998E-14
1.3063829787234032E-4     9.767330453724461E-14
1.3106382978723396E-4     9.965124489968103E-14
1.3148936170212755E-4     1.0162136460014924E-13
1.3191489361702118E-4     1.0358366363864926E-13
1.3234042553191482E-4     1.0553814201518108E-13
1.3276595744680843E-4     1.0748479972974467E-13
1.3319148936170205E-4     1.0942363678234006E-13
1.3361702127659568E-4     1.1135432986973716E-13
1.340425531914893E-4      1.132765449721245E-13
1.344680851063829E-4      1.151902820895021E-13
1.3489361702127652E-4     1.1709554122186988E-13
1.3531914893617016E-4     1.1899232236922798E-13
1.3574468085106377E-4     1.2088062553157625E-13
1.3617021276595738E-4     1.227604507089148E-13
1.36595744680851E-4       1.2463147377650858E-13
1.370212765957446E-4      1.2649336422780998E-13
1.374468085106382E-4      1.2834612206281888E-13
1.3787234042553182E-4     1.3018974728153532E-13
1.3829787234042546E-4     1.320242398839594E-13
1.3872340425531907E-4     1.3384959987009094E-13
1.3914893617021268E-4     1.356658272399301E-13
1.395744680851063E-4      1.3747259787831435E-13
1.399999999999999E-4      1.3926958616873316E-13
1.4042553191489352E-4     1.4105679211118648E-13
1.4085106382978716E-4     1.4283421570567436E-13
1.4127659574468077E-4     1.446018569521968E-13
1.4170212765957438E-4     1.4635971585075375E-13
1.42127659574468E-4       1.4810779240134525E-13
1.4255319148936163E-4     1.4984576346663647E-13
1.429787234042552E-4      1.515733098160074E-13
1.4340425531914882E-4     1.5329043144945803E-13
1.4382978723404246E-4     1.5499712836698835E-13
1.4425531914893607E-4     1.5669340056859843E-13
1.446808510638297E-4      1.5837924805428813E-13
1.4510638297872332E-4     1.6005467082405755E-13
1.4553191489361696E-4     1.6171934782049889E-13
1.4595744680851054E-4     1.6337296780403553E-13
1.4638297872340416E-4     1.6501553077466741E-13
1.468085106382978E-4      1.6664703673239463E-13
1.472340425531914E-4      1.6826748567721714E-13
1.4765957446808502E-4     1.698768776091349E-13
1.4808510638297863E-4     1.7147521252814795E-13
1.4851063829787224E-4     1.7306217268757082E-13
1.4893617021276588E-4     1.746374565428016E-13
1.493617021276595E-4      1.7620106409384025E-13
1.497872340425531E-4      1.777529953406868E-13
1.5021276595744674E-4     1.792932502833413E-13
1.5063829787234035E-4     1.8082182892180366E-13
1.5106382978723396E-4     1.8233873125607396E-13
1.5148936170212757E-4     1.8384364420304553E-13
1.519148936170212E-4      1.8533627770417153E-13
1.523404255319148E-4      1.8681663175945196E-13
1.5276595744680843E-4     1.8828470636888681E-13
1.5319148936170204E-4     1.8974050153247618E-13
1.5361702127659563E-4     1.9118401725021992E-13
1.5404255319148927E-4     1.926152535221181E-13
1.5446808510638288E-4     1.9403390339591865E-13
1.548936170212765E-4      1.9543969016449973E-13
1.553191489361701E-4      1.9683261382786136E-13
1.557446808510637E-4      1.9821267438600353E-13
1.5617021276595732E-4     1.995798718389263E-13
1.5659574468085093E-4     2.009342061866296E-13
1.5702127659574457E-4     2.0227567742911346E-13
1.574468085106382E-4      2.036039863175362E-13
1.578723404255318E-4      2.0491887142243618E-13
1.5829787234042543E-4     2.0622033274381333E-13
1.5872340425531904E-4     2.0750837028166772E-13
1.5914893617021266E-4     2.0878298403599943E-13
1.595744680851063E-4      2.1004417400680824E-13
1.599999999999999E-4      2.1129194019409432E-13
1.6042553191489354E-4     2.1252599271993584E-13
1.6085106382978715E-4     2.1374608740539047E-13
1.6127659574468077E-4     2.1495222425045817E-13
1.6170212765957438E-4     2.1614440325513905E-13
1.62127659574468E-4       2.173226244194331E-13
1.6255319148936163E-4     2.1848688774334022E-13
1.6297872340425524E-4     2.1963719322686052E-13
1.6340425531914885E-4     2.2077326211441776E-13
1.6382978723404246E-4     2.2189486948191717E-13
1.642553191489361E-4      2.2300201532935877E-13
1.646808510638297E-4      2.2409469965674253E-13
1.6510638297872332E-4     2.2517292246406852E-13
1.6553191489361693E-4     2.2623668375133655E-13
1.6595744680851054E-4     2.2728598351854686E-13
1.6638297872340415E-4     2.283205559554294E-13
1.668085106382978E-4      2.2934019741336E-13
1.6723404255319138E-4     2.3034490789233854E-13
1.6765957446808501E-4     2.3133468739236506E-13
1.6808510638297863E-4     2.323095359134396E-13
1.6851063829787224E-4     2.3326945345556206E-13
1.6893617021276588E-4     2.3421444001873256E-13
1.693617021276595E-4      2.3514424461913567E-13
1.697872340425531E-4      2.3605868690495523E-13
1.702127659574467E-4      2.369577668761911E-13
1.7063829787234032E-4     2.3784148453284354E-13
1.7106382978723396E-4     2.387098398749125E-13
1.7148936170212757E-4     2.3956283290239774E-13
1.7191489361702118E-4     2.404004636152995E-13
1.7234042553191482E-4     2.4122249778211944E-13
1.7276595744680843E-4     2.420287803535645E-13
1.7319148936170204E-4     2.4281931132963463E-13
1.7361702127659565E-4     2.4359409071032977E-13
1.7404255319148926E-4     2.443531184956501E-13
1.744680851063829E-4      2.450963946855954E-13
1.7489361702127651E-4     2.4582391928016587E-13
1.7531914893617015E-4     2.465354767563009E-13
1.7574468085106374E-4     2.472309393414137E-13
1.7617021276595735E-4     2.479103070355043E-13
1.7659574468085099E-4     2.4857357983857276E-13
1.770212765957446E-4      2.492207577506191E-13
1.774468085106382E-4      2.4985184077164315E-13
1.7787234042553182E-4     2.5046682890164513E-13
1.7829787234042543E-4     2.5106552729706385E-13
1.7872340425531904E-4     2.5164783738907526E-13
1.7914893617021265E-4     2.5221375917767945E-13
1.795744680851063E-4      2.5276329266287637E-13
1.7999999999999993E-4     2.5329643784466613E-13
1.8042553191489351E-4     2.5381319472304857E-13
1.8085106382978715E-4     2.543135632980238E-13
1.8127659574468076E-4     2.547973713763629E-13
1.8170212765957437E-4     2.552645514569667E-13
1.8212765957446799E-4     2.5571510353983516E-13
1.825531914893616E-4      2.5614902762496813E-13
1.829787234042552E-4      2.5656632371236593E-13
1.8340425531914882E-4     2.5696699180202823E-13
1.8382978723404243E-4     2.573510318939552E-13
1.8425531914893607E-4     2.577182964008286E-13
1.8468085106382968E-4     2.5806875067436815E-13
1.851063829787233E-4      2.5840239471457384E-13
1.8553191489361693E-4     2.587192285214457E-13
1.8595744680851054E-4     2.5901925209498385E-13
1.8638297872340418E-4     2.5930246543518803E-13
1.868085106382978E-4      2.5956886854205846E-13
1.8723404255319143E-4     2.5981834035842126E-13
1.8765957446808504E-4     2.600508807807587E-13
1.8808510638297862E-4     2.602664898090709E-13
1.8851063829787226E-4     2.6046516744335774E-13
1.8893617021276585E-4     2.606469136836194E-13
1.8936170212765949E-4     2.608117285298557E-13
1.897872340425531E-4      2.609596119820667E-13
1.9021276595744673E-4     2.610904713903877E-13
1.9063829787234032E-4     2.6120434278060427E-13
1.9106382978723393E-4     2.6130122615271633E-13
1.9148936170212757E-4     2.613811215067239E-13
1.9191489361702115E-4     2.614440288426272E-13
1.923404255319148E-4      2.6148994816042585E-13
1.927659574468084E-4      2.6151887946012014E-13
1.93191489361702E-4       2.6153076031461415E-13
1.9361702127659562E-4     2.6152566434199175E-13
1.9404255319148926E-4     2.615035915422529E-13
1.9446808510638287E-4     2.6146454191539754E-13
1.9489361702127649E-4     2.614085154614259E-13
1.953191489361701E-4      2.613355121803377E-13
1.957446808510637E-4      2.6124553207213313E-13
1.9617021276595732E-4     2.611385446710148E-13
1.9659574468085096E-4     2.610146625165945E-13
1.9702127659574454E-4     2.608738856088723E-13
1.9744680851063818E-4     2.607162139478482E-13
1.978723404255318E-4      2.605416475335223E-13
1.9829787234042543E-4     2.603501863658944E-13
1.9872340425531904E-4     2.6014183044496463E-13
1.9914893617021268E-4     2.5991658291285973E-13
1.9957446808510626E-4     2.596745964149607E-13
1.9999999999999987E-4     2.594158709512676E-13
2.004255319148935E-4      2.591404065217804E-13
2.0085106382978715E-4     2.588482031264993E-13
2.0127659574468076E-4     2.585392607654239E-13
2.0170212765957437E-4     2.5821357943855455E-13
2.02127659574468E-4       2.5787119743712534E-13
2.0255319148936162E-4     2.575123085406166E-13
2.029787234042552E-4      2.571369127490283E-13
2.0340425531914887E-4     2.5674501006236047E-13
2.0382978723404246E-4     2.563366004806132E-13
2.042553191489361E-4      2.5591168400378627E-13
2.046808510638297E-4      2.5547026063187986E-13
2.0510638297872332E-4     2.550124052282637E-13
2.0553191489361693E-4     2.545383535694202E-13
2.0595744680851054E-4     2.5404810565534936E-13
2.0638297872340415E-4     2.535416614860512E-13
2.0680851063829776E-4     2.5301902106152583E-13
2.0723404255319137E-4     2.52480184381773E-13
2.0765957446808498E-4     2.519251514467929E-13
2.080851063829786E-4      2.513540349840098E-13
2.085106382978722E-4      2.5076711345724865E-13
2.0893617021276582E-4     2.5016438686650953E-13
2.0936170212765946E-4     2.495458552117924E-13
2.097872340425531E-4      2.489115184930974E-13
2.1021276595744668E-4     2.4826137671042425E-13
2.1063829787234032E-4     2.475954298637732E-13
2.1106382978723393E-4     2.469138296941E-13
2.1148936170212754E-4     2.4621689786373606E-13
2.1191489361702115E-4     2.455046343726812E-13
2.1234042553191476E-4     2.447770392209355E-13
2.1276595744680837E-4     2.4403411240849897E-13
2.1319148936170198E-4     2.432758539353715E-13
2.136170212765956E-4      2.4250226380155327E-13
2.140425531914892E-4      2.4171353375912284E-13
2.1446808510638282E-4     2.4091002899535314E-13
2.1489361702127643E-4     2.400917495102442E-13
2.1531914893617004E-4     2.39258695303796E-13
2.1574468085106365E-4     2.384108663760086E-13
2.1617021276595726E-4     2.375482627268819E-13
2.1659574468085087E-4     2.3667088435641595E-13
2.170212765957445E-4      2.3577896386413623E-13
2.1744680851063815E-4     2.348729101011966E-13
2.1787234042553176E-4     2.33952723067597E-13
2.1829787234042537E-4     2.330184027633376E-13
2.1872340425531898E-4     2.320699491884183E-13
2.1914893617021265E-4     2.31107362342839E-13
2.1957446808510626E-4     2.301306422265999E-13
2.199999999999999E-4      2.2914006295371907E-13
2.2042553191489348E-4     2.281360769892586E-13
2.208510638297871E-4      2.2711868433321844E-13
2.2127659574468073E-4     2.260878849855987E-13
2.2170212765957432E-4     2.2504367894639936E-13
2.2212765957446796E-4     2.2398606621562032E-13
2.2255319148936157E-4     2.2291504679326168E-13
2.229787234042552E-4      2.2183093679981952E-13
2.234042553191488E-4      2.2073423207493563E-13
2.238297872340424E-4      2.1962493261860983E-13
2.2425531914893604E-4     2.1850303843084225E-13
2.2468085106382965E-4     2.1736854951163293E-13
2.2510638297872326E-4     2.162214658609817E-13
2.2553191489361687E-4     2.150617874788887E-13
2.2595744680851048E-4     2.138898728047701E-13
2.2638297872340412E-4     2.1270626062588835E-13
2.268085106382977E-4      2.1151095094224335E-13
2.2723404255319137E-4     2.1030394375383518E-13
2.2765957446808498E-4     2.090852390606639E-13
2.280851063829786E-4      2.0785483686272934E-13
2.2851063829787223E-4     2.0661273716003165E-13
2.2893617021276587E-4     2.0535934084001975E-13
2.2936170212765948E-4     2.0409522902725206E-13
2.2978723404255307E-4     2.028204017217286E-13
2.302127659574467E-4      2.0153485892344933E-13
2.3063829787234032E-4     2.0023860063241435E-13
2.3106382978723393E-4     1.9893162684862356E-13
2.3148936170212754E-4     1.9761393757207698E-13
2.3191489361702118E-4     1.9628597608261656E-13
2.3234042553191476E-4     1.9494836505356742E-13
2.3276595744680837E-4     1.9360110448492954E-13
2.3319148936170198E-4     1.9224419437670295E-13
2.336170212765956E-4      1.9087763472888766E-13
2.3404255319148923E-4     1.8950142554148358E-13
2.3446808510638284E-4     1.8811556681449082E-13
2.3489361702127648E-4     1.8672054398045994E-13
2.3531914893617007E-4     1.8531702030158995E-13
2.3574468085106368E-4     1.8390499577788081E-13
2.3617021276595732E-4     1.8248447040933256E-13
2.3659574468085093E-4     1.8105544419594522E-13
2.3702127659574454E-4     1.7961791713771872E-13
2.3744680851063818E-4     1.781718892346531E-13
2.378723404255318E-4      1.7671788764973377E-13
2.382978723404254E-4      1.7525661511241504E-13
2.3872340425531898E-4     1.7378807162269687E-13
2.391489361702126E-4      1.7231225718057931E-13
2.3957446808510623E-4     1.7082917178606237E-13
2.3999999999999982E-4     1.6933881543914597E-13
2.4042553191489345E-4     1.6784118813983019E-13
2.4085106382978707E-4     1.6633685818010303E-13
2.412765957446807E-4      1.6482656648431752E-13
2.417021276595743E-4      1.6331031305247367E-13
2.4212765957446793E-4     1.6178809788457149E-13
2.4255319148936154E-4     1.60259920980611E-13
2.4297872340425515E-4     1.587257823405921E-13
2.434042553191488E-4      1.5718568196451493E-13
2.4382978723404243E-4     1.556402284987057E-13
2.4425531914893604E-4     1.5409019965159683E-13
2.4468085106382965E-4     1.5253559542318835E-13
2.4510638297872326E-4     1.5097641581348023E-13
2.4553191489361687E-4     1.4941266082247253E-13
2.4595744680851054E-4     1.4784433045016515E-13
2.4638297872340415E-4     1.4627142469655816E-13
2.4680851063829776E-4     1.4469459162161442E-13
2.4723404255319137E-4     1.4311464418316048E-13
2.47659574468085E-4       1.415315823811964E-13
2.480851063829786E-4      1.3994540621572216E-13
2.4851063829787226E-4     1.3835611568673775E-13
2.4893617021276587E-4     1.3676371079424315E-13
2.493617021276595E-4      1.3516819153823838E-13
2.497872340425531E-4      1.3357024429426421E-13
2.502127659574467E-4      1.3197071562753594E-13
2.5063829787234026E-4     1.3036960553805362E-13
2.510638297872339E-4      1.287669140258172E-13
2.5148936170212754E-4     1.2716264109082673E-13
2.5191489361702115E-4     1.2555678673308214E-13
2.5234042553191476E-4     1.2394935095258347E-13
2.5276595744680837E-4     1.2234105719602392E-13
2.53191489361702E-4       1.2073278390427322E-13
2.536170212765956E-4      1.1912453107733131E-13
2.540425531914892E-4      1.1751629871519825E-13
2.5446808510638287E-4     1.1590808681787403E-13
2.548936170212765E-4      1.1429989538535858E-13
2.553191489361701E-4      1.1269172441765201E-13
2.557446808510637E-4      1.1108433305465415E-13
2.561702127659573E-4      1.0947862981071717E-13
2.565957446808509E-4      1.0787461468584104E-13