% Model:              PLacek_MembTVNJ_ArticleDims_Rh20um_hg5um_To2MHz_PHedit.mph
% Version:            COMSOL 6.3.0.335
% Date:               May 22 2025, 10:43
% Dimension:          1
% Nodes:              555
% Expressions:        2
% Description:        Global
% f (Hz)                  ,                        , 
20                        -6.464625585408158E-11   8.033024688099587E-14
50                        -6.464229338377601E-11   2.0029291597154664E-13
100                       -6.463486746107527E-11   3.9694161596809325E-13
200                       -6.461592474819874E-11   7.872997386134484E-13
500                       -6.449629470062044E-11   1.9507952448286407E-12
1000                      -6.409806463800236E-11   3.8106100811967736E-12
1258.9254117941675        -6.381345425601473E-11   4.7226525452176066E-12
1584.893192461114         -6.339472116451966E-11   5.8185982833123534E-12
1995.2623149688789        -6.278716002019534E-11   7.116537879121783E-12
2511.88643150958          -6.191589740819531E-11   8.62339904348179E-12
3162.2776601683795        -6.068220038265897E-11   1.0319720303682432E-11
3981.0717055349733        -5.897007191467861E-11   1.2135041415878334E-11
5011.872336272725         -5.667508891151291E-11   1.39213881558652E-11
6309.57344480193          -5.3761431604663886E-11  1.5446476525434502E-11
7943.282347242814         -5.032937737207098E-11   1.643664129364829E-11
10000                     -4.664228311266762E-11   1.6677526012594663E-11
12589.254117941662        -4.3063828404179845E-11  1.6121797380750104E-11
15848.93192461114         -3.992673504302159E-11   1.491902247539927E-11
19952.62314968879         -3.742549857926991E-11   1.3341359934194347E-11
25118.864315095823        -3.5599769717283414E-11  1.1670396193840029E-11
31622.776601683792        -3.438998653177098E-11   1.0122673879773079E-11
39810.71705534969         -3.370911504833307E-11   8.834950995783344E-12
50118.72336272725         -3.349737721198093E-11   7.887854402692223E-12
63095.7344480193          -3.3760213766582125E-11  7.345505676125976E-12
79432.82347242821         -3.46087251374088E-11    7.309409683209782E-12
100000                    -3.633688916735164E-11   8.021851389912099E-12
102329.29922807537        -3.657864948434334E-11   8.15343834212333E-12
104712.85480508985        -3.6836155322557654E-11  8.299416267153557E-12
107151.9305237607         -3.711043330023599E-11   8.460995977271263E-12
109647.8196143185         -3.7402595604569605E-11  8.63954398121048E-12
112201.84543019629        -3.77138469607528E-11    8.83660629294703E-12
114815.36214968817        -3.8045491910195246E-11  9.05393653389977E-12
117489.75549395304        -3.8398942264454244E-11  9.293529216856105E-12
120226.4434617413         -3.87757245205029E-11    9.557659306901665E-12
123026.87708123811        -3.91774869051571E-11    9.848929410677353E-12
125892.54117941661        -3.960600554735152E-11   1.0170326268735805E-11
128824.95516931349        -4.0063189034343816E-11  1.0525288631414823E-11
131825.67385564075        -4.0551080258048163E-11  1.0917789105211593E-11
134896.28825916533        -4.1071853954056965E-11  1.1352433198048943E-11
138038.42646028838        -4.1627807611737186E-11  1.183457958842072E-11
141253.75446227554        -4.222134238464132E-11   1.2370486639877335E-11
144543.9770745928         -4.2854929113278754E-11  1.2967491410507516E-11
147910.83881682073        -4.3531052362793413E-11  1.3634228901644638E-11
151356.12484362072        -4.425212216198666E-11   1.4380901066048455E-11
154881.66189124828        -4.502033841904047E-11   1.521960711668422E-11
158489.3192461114         -4.583748608538657E-11   1.6164748812815154E-11
162181.009735893          -4.670462899404617E-11   1.7233526296094904E-11
165958.69074375596        -4.762165540027964E-11   1.8446540951839756E-11
169824.3652461746         -4.8586606409660154E-11  1.982852012097203E-11
173780.08287493762        -4.959468669093657E-11   2.1409171265656508E-11
177827.94100389228        -5.0636811196361065E-11  2.3224154625312178E-11
181970.08586099825        -5.169747758499206E-11   2.5316122825402074E-11
186208.71366628655        -5.2751668306923446E-11  2.773569397553109E-11
190546.07179632483        -5.37603813727315E-11    3.054206765802235E-11
194984.45997580455        -5.4664285313518293E-11  3.3802704388888696E-11
199526.2314968879         -5.537495816207708E-11   3.7590982432250545E-11
204173.79446695274        -5.5763372238851314E-11  4.197991254185473E-11
208929.6130854041         -5.564610182645054E-11   4.702876227048374E-11
213796.20895022326        -5.477187445781798E-11   5.275800496062195E-11
218776.16239495517        -5.281561957791822E-11   5.910736296542213E-11
223872.11385683378        -4.9394809599291036E-11  6.587467965428744E-11
229086.76527677747        -4.413139386973159E-11   7.264532467000895E-11
230000.0000000001         -4.3013611353212654E-11  7.377008423327873E-11
231061.63176403087        -4.1640309647934867E-11  7.504220265210238E-11
232128.16379763727        -4.018149562358873E-11   7.627572793557882E-11
233199.6187194365         -3.8637518862735805E-11  7.746346216857679E-11
234276.019252447          -3.700943753828264E-11   7.859798373658372E-11
235357.38822457343        -3.529907569384802E-11   7.96717249961954E-11
236443.74856908878        -3.3509071582260404E-11  8.067706218565532E-11
237535.12332512165        -3.164291443260509E-11   8.160641662179693E-11
238631.53563814302        -2.970496707187406E-11   8.245236561459606E-11
239733.00876045992        -2.7700472033861633E-11  8.320776094120572E-11
240839.56605170676        -2.5635539135863674E-11  8.386585211337835E-11
241951.2309793415         -2.351711302145275E-11   8.442041114494813E-11
243068.02711914157        -2.135291982010922E-11   8.486585509439946E-11
244189.97815570666        -1.9151392867737377E-11  8.519736238016601E-11
245317.10788295916        -1.6921578292680558E-11  8.541097876613529E-11
246449.44020464973        -1.4673022185900247E-11  8.550370903084711E-11
247586.99913486216        -1.2415641960073419E-11  8.547359068608629E-11
248729.80879852574        -1.0159585314514336E-11  8.5319746651592E-11
249877.89343192492        -7.915080878117343E-12   8.504241457857075E-11
249999.99999999994        -7.678067284581026E-12   8.50057940151041E-11
252894.8635649745         -2.19256317624344E-12    8.375236405060002E-11
255823.24807018833        3.002287303619066E-12    8.179177115226673E-11
258785.5416698357         7.779721988795998E-12    7.92117616273594E-11
261782.13701272456        1.2044458723739646E-11   7.612563111790562E-11
264813.43129432236        1.5736988302331278E-11   7.265986817135406E-11
267879.82630940166        1.8832929798022757E-11   6.894215201396901E-11
270981.7285053009         2.133853133133279E-11    6.509153668172194E-11
274119.5490357962         2.3283905268313265E-11   6.121177214648401E-11
277293.70381560014        2.4715563501711095E-11   5.7387855490795975E-11
280504.61357549066        2.568944785869286E-11    5.3685306653302927E-11
283752.7039180785         2.6265159391983564E-11   5.015138690913196E-11
287038.40537422034        2.6501648574777493E-11   4.681746365677187E-11
290362.15346008586        2.6454317556817E-11      4.370186422970388E-11
293724.3887348825         2.617331461643333E-11    4.0812755734884026E-11
297125.55685925466        2.5702739879691217E-11   3.815077270799644E-11
300566.1086543532         2.5080489844034644E-11   3.5711259319117034E-11
304046.5001615919         2.4338511353241144E-11   3.348609162195509E-11
307567.1927030952         2.350328948979082E-11    3.1465104172195603E-11
311128.652942846          2.259644487707644E-11    2.963717480999814E-11
314731.35294854146        2.163535816572579E-11    2.7991031807120406E-11
318375.77025416563        2.0633771646317575E-11   2.6515847071732605E-11
322062.3879232836         1.9602340982285177E-11   2.520167336302824E-11
325791.69461307494        1.8549125869584623E-11   2.4039776145192805E-11
329564.1846391018         1.748001909573893E-11    2.302290395867413E-11
333380.35804083094        1.639912092605983E-11    2.2145536253773998E-11
337240.72064791323        1.5309071801420716E-11   2.1404145273726847E-11
341145.78414723085        1.4211362819254534E-11   2.0797509362932743E-11
345096.0661507209         1.310665261606629E-11    2.0327119636424446E-11
349092.090263984          1.199513430449451E-11    1.9997731015650038E-11
353134.3861556888         1.0877022379591195E-11   1.9818123017721357E-11
357223.4896277758         9.75327641065531E-12     1.980215561897962E-11
361359.9426864819         8.626763043626521E-12    1.9970228821384576E-11
365544.2936141795         7.504211891629084E-12    2.035127118585336E-11
369777.09704205167        6.399601604691444E-12    2.0985359848035096E-11
374058.9140236081         5.3401191197147904E-12   2.1926917528008578E-11
378390.3121090517         4.376717975310516E-12    2.3247881515944416E-11
382771.8654205071         3.602691928130213E-12    2.5038620518550524E-11
387204.1547281206         3.1852412601308475E-12   2.740005483151459E-11
391687.7675270374         3.41405478703857E-12     3.041008391825929E-11
396223.2981152784         4.7564200260278225E-12   3.402746588483326E-11
400811.3476725103         7.849887850381467E-12    3.787948012615665E-11
405452.52433973236        1.3232686222167866E-11   4.095785292027272E-11
410147.44329988456        2.0600128850544188E-11   4.1619434381393565E-11
414896.7268593898         2.8143555605759274E-11   3.862391597808584E-11
419701.0045306396         3.348012575360477E-11    3.260205936589276E-11
424560.9131154364         3.5620260893179044E-11   2.56521087656261E-11
429477.09678939724        3.524397864281008E-11    1.949479972352662E-11
434450.20718734397        3.350703816181358E-11    1.4731655981201426E-11
439480.90348967316        3.125768298593898E-11    1.1266216401714355E-11
444569.85250973055        2.8947974702583038E-11   8.795067810142994E-12
449717.7287821967         2.6773966986036927E-11   7.030643593468097E-12
454925.2146524955         2.4801118153507865E-11   5.75608901244259E-12
460193.0003672385         2.303642610711339E-11    4.820466720575687E-12
465521.78416571626        2.1463823871078047E-11   4.1215476466945905E-12
470912.2723724504         2.0060164919511728E-11   3.590389844949722E-12
476365.17949081195        1.880194438057224E-11    3.180208230689473E-12
481881.22829773405        1.7667819458422533E-11   2.8589074466368013E-12
487461.14993951126        1.6639301580424642E-11   2.6041982518337047E-12
493105.6840287132         1.5700698506577508E-11   2.400420631124617E-12
498815.57874221954        1.4838784980712737E-11   2.2364699049006925E-12
499999.99999999994        1.4669705905212127E-11   2.2068745114679816E-12
503852.4070680516         1.4140514836215456E-11   2.119687135302353E-12
507734.4962165402         1.3636715852087544E-11   2.0444229135185404E-12
511646.4961403767         1.3155804531963478E-11   1.9797960214527715E-12
515588.6372965279         1.2695511360368789E-11   1.9248088007821484E-12
519561.1519175845         1.2253765926607236E-11   1.878710546731998E-12
523564.2740254492         1.1828664706591844E-11   1.8409687508000804E-12
527598.2394451202         1.1418441939069744E-11   1.811251112607076E-12
531663.2858185802         1.1021443125803812E-11   1.789417461410944E-12
535759.6526188034         1.0636100765179046E-11   1.7755215148045896E-12
539887.5811638546         1.0260912079992404E-11   1.769823239167168E-12
544047.3146311137         9.894418764832884E-12    1.7728135693699311E-12
548239.0980715925         9.535189239202245E-12    1.7852545324077458E-12
552463.178424379          9.181804713555013E-12    1.8082395963165645E-12
556719.8045311809         8.832851865851887E-12    1.8432816177349065E-12
561009.2271509814         8.486927677722745E-12    1.8924395100154783E-12
565331.6989748199         8.14266713665562E-12     1.958500303133082E-12
569687.4746406684         7.7988143252212E-12      2.0452414132875437E-12
574076.8107484408         7.454376383782853E-12    2.1578094883767757E-12
578499.9658751057         7.1089370252515894E-12   2.3032670757861646E-12
582957.2005899155         6.763280084544182E-12    2.4913724658241213E-12
587448.777469765          6.420620665014774E-12    2.7356529733285883E-12
591974.9611146507         6.089030495201674E-12    3.054743056142938E-12
596536.0181632673         5.786179784143855E-12    3.4735813873889157E-12
601132.2173087065         5.54833480630937E-12     4.02279867795484E-12
605763.8293142937         5.445925262905554E-12    4.730983934001933E-12
610431.1270295358         5.603570752025423E-12    5.596173293687101E-12
615134.3854061905         6.198519813932998E-12    6.514480217658551E-12
619873.8815144727         7.35480793587517E-12     7.182454543431137E-12
624649.8945593665         8.882428307279602E-12    7.162510228555446E-12
629462.705897083          1.0207296762170777E-11   6.309044966690643E-12
634312.59905163           1.0875401390017404E-11   5.0134761918965316E-12
639199.8597315114         1.0917834716188981E-11   3.76816621374156E-12
644124.7758465674         1.059906865711238E-11    2.7932663800893295E-12
649087.6375249244         1.0136333468484929E-11   2.09407572740318E-12
654088.7371300963         9.64526604975663E-12     1.6066975133235187E-12
659128.3692782036         9.174845563451722E-12    1.2672054397253796E-12
664206.8308553251         8.741430469956985E-12    1.0281249205487667E-12
669324.421034997          8.347562532494479E-12    8.572972595106468E-13
674481.4412958266         7.990745454101249E-12    7.334859698639865E-13
679678.1954392634         7.667298017489752E-12    6.424322977728136E-13
684914.989607485          7.37373475392738E-12     5.735574267251889E-13
690192.1323014419         7.105552852462834E-12    5.174331378142742E-13
695509.9343990267         6.854360029286047E-12    4.679975058953277E-13
700868.7091733846         6.613397442898363E-12    4.27249223057104E-13
706268.7723113777         6.383276305302674E-12    3.9737471085303427E-13
711710.4419321707         6.165108910706749E-12    3.762989531544421E-13
717194.038605982          5.957926239469634E-12    3.614968396034363E-13
722719.8853729639         5.76005715301376E-12     3.513970735735588E-13
728288.3077622285         5.569861250438196E-12    3.4514494008654445E-13
733899.6338110352         5.385861577868542E-12    3.423083801329225E-13
739554.1940841035         5.206712278842439E-12    3.4272852505256853E-13
745252.3216930988         5.031138486811247E-12    3.464601729253476E-13
750994.3523162436         4.857875458084046E-12    3.537622982850948E-13
756780.6242181035         4.685607544576636E-12    3.6512406634929355E-13
762611.4782695097         4.5129022514748695E-12   3.813271738392594E-13
768487.2579676354         4.338133697601228E-12    4.0355734164726536E-13
774408.3094562413         4.159390187640002E-12    4.3359298660767536E-13
780374.9815460556         3.974363654386743E-12    4.741249285090807E-13
786387.625735333          3.780230782178851E-12    5.293103031289075E-13
792446.596230557          3.573576777867971E-12    6.057629928484682E-13
798552.2499673011         3.3505472999076265E-12   7.143870224189283E-13
800000.0000000003         3.29512428724853E-12     7.465114591735003E-13
803692.632222716          3.1490636607341524E-12   8.430817612947961E-13
807402.308861347          2.99582085644538E-12     9.66989967724913E-13
811129.1085893443         2.83715913394112E-12     1.1283750025245027E-12
814873.1104432939         2.678453141002495E-12    1.3416115330814549E-12
818634.3938246032         2.5327879993713906E-12   1.6263912874532324E-12
822413.0385011783         2.4290316649375308E-12   2.006894006880599E-12
826209.1246091188         2.4256142770954677E-12   2.503189014560407E-12
830022.7326544104         2.6245341224573517E-12   3.1006979061678007E-12
833853.9435146432         3.149679209893209E-12    3.683959621648428E-12
837702.8384407192         4.016556786105415E-12    3.993819479315596E-12
841569.4990585791         4.9683115325266815E-12   3.7988852954032365E-12
845454.0073709271         5.639018605779978E-12    3.189064172969319E-12
849356.4457589797         5.9107976055738496E-12   2.4722888476709925E-12
853276.8969842058         5.899183141373519E-12    1.8573527945345596E-12
857215.444190086          5.74795009710511E-12     1.3948097524242738E-12
861172.1709038683         5.546577764194328E-12    1.062930831737586E-12
865147.1610383504         5.337898007912326E-12    8.267153131370918E-13
869140.4988936519         5.139317933605511E-12    6.570521951419236E-13
873152.2691590061         4.956487728094438E-12    5.332433301426417E-13
877182.5569145484         4.7900921153879E-12      4.4127228848073965E-13
881231.447633132          4.638919125681697E-12    3.717386219825691E-13
885299.0271821326         4.5011803744578415E-12   3.182958992216766E-13
889385.381825274          4.37505114591291E-12     2.7660134786447777E-13
893490.5982244493         4.258870615195732E-12    2.4363510194019596E-13
897614.7634415707         4.151197583531505E-12    2.172620383628182E-13
901757.9649404079         4.050807651397741E-12    1.959480341587309E-13
905920.2905884465         3.956669257962749E-12    1.7857401267634437E-13
910101.8286587452         3.867914509564201E-12    1.6431230504104734E-13
914302.6678318174         3.783811187770264E-12    1.5254318822878964E-13
918522.8971975057         3.703738142389168E-12    1.4279769786278529E-13
922762.6062568747         3.627164489651101E-12    1.3471789094241965E-13
927021.8849241013         3.553632326044374E-12    1.2802888428655526E-13
931300.823528393          3.4827424329128347E-12   1.2251897169283508E-13
935599.5128158963         3.4141424122312196E-12   1.1802538106812438E-13
939918.0439516247         3.3475167355767097E-12   1.1442404649534722E-13
944256.5085213842         3.2825782506028512E-12   1.1162230644577277E-13
948614.9985337281         3.219060748109802E-12    1.095538013567395E-13
952993.6064218994         3.1567122378824263E-12   1.0817509672024933E-13
957392.4250457959         3.095288608464188E-12    1.0746374427566679E-13
961811.5476939309         3.0345473521981302E-12   1.0741764357669305E-13
966251.0680854243         2.974241019052875E-12    1.0805570234351038E-13
970711.0803719814         2.9141100157098703E-12   1.0941993838472305E-13
975191.6791398943         2.853874281535893E-12    1.1157934376692662E-13
979692.9594120395         2.7932232365680247E-12   1.1463607864256224E-13
984215.0166499054         2.731803186796465E-12    1.187349334621496E-13
988757.946755608          2.6692010558634825E-12   1.2407758894611382E-13
993321.8460739299         2.6049228408833297E-12   1.3094418212527385E-13
997906.811394355          2.538364495146276E-12    1.397263669950761E-13
1000000                   2.5071278079624438E-12   1.4449886738114215E-13
1002305.2380779005        2.471980876085903E-12    1.5040959311894897E-13
1004615.7902783946        2.435851928507517E-12    1.5712179040121605E-13
1006931.6688518045        2.398598411032251E-12    1.6476481631539034E-13
1009252.8860766834        2.3600575728185136E-12   1.7349676014635348E-13
1011579.4542598983        2.320042961216253E-12    1.8351226107726748E-13
1013911.3857366799        2.2783403689860908E-12   1.950528975691672E-13
1016248.6928706949        2.2347032443334283E-12   2.084211389919469E-13
1018591.388054117         2.1888476828538135E-12   2.239992870421802E-13
1020939.4837076807        2.1404473440849844E-12   2.422754863342078E-13
1023292.9922807537        2.0891290802370516E-12   2.6387986375498087E-13
1025651.926251408         2.034470937428171E-12    2.8963533770756786E-13
1028016.2981264725        1.9760058957376355E-12   3.2062987755088364E-13
1030386.1204416159        1.9132380597382347E-12   3.5832034480356736E-13
1032761.405761398         1.8456846180214137E-12   4.0468291749271765E-13
1035142.1666793431        1.7729700509694043E-12   4.624316644951339E-13
1037528.4158180127        1.695025463204681E-12    5.35333977132247E-13
1039920.16582906          1.6124988598262877E-12   6.286533253382707E-13
1042317.4293933036        1.52758652066652E-12     7.497244492261274E-13
1044720.2192208003        1.445689176510973E-12    9.085442358710324E-13
1047128.5480508985        1.3785945646978273E-12   1.1178428801947058E-12
1049542.4286523222        1.3500586674428287E-12   1.3908932815155256E-12
1051961.8738232234        1.4033323588305636E-12   1.7325826479638206E-12
1054386.896391258         1.6028989614169798E-12   2.1163576203083696E-12
1056817.5092136585        2.005281160756007E-12    2.4500504749012544E-12
1059253.7251772897        2.5781644571952137E-12   2.583174694119367E-12
1061695.5571987242        3.1543267081883526E-12   2.426029653944798E-12
1064143.0182243164        3.556301561403868E-12    2.0580704502305465E-12
1066596.1212302567        3.7409783673970824E-12   1.6383073522419222E-12
1069054.8792226578        3.768394055670775E-12    1.2698860394346162E-12
1071519.305237607         3.711177025071073E-12    9.818229164913743E-13
1073989.412341244         3.6177753317426542E-12   7.666350841436052E-13
1076465.213629835         3.5138487028262533E-12   6.077097760517323E-13
1078946.7222298298        3.411326408879433E-12    4.897801506376958E-13
1081433.9512979374        3.3150871404778075E-12   4.0122873476268005E-13
1083926.914021204         3.2266618425552454E-12   3.337649351736394E-13
1086425.6236170644        3.1460859378647128E-12   2.815882516856982E-13
1088930.0933334331        3.072784333546507E-12    2.406429726226316E-13
1091440.3364487572        3.0059816440338147E-12   2.0807019660133383E-13
1093956.366272093         2.944885082355109E-12    1.8183017405937737E-13
1096478.196143185         2.888759951047817E-12    1.6044761401979975E-13
1099005.839432522         2.8369552111233793E-12   1.4284046264255748E-13
1101539.3095414145        2.7889065893644996E-12   1.2820414698800552E-13
1104078.6199020736        2.744130287557204E-12    1.1593253546406213E-13
1106623.7839776652        2.7022134298820374E-12   1.0556331949276495E-13
1109174.8152624008        2.6628040422958456E-12   9.673978518933632E-14
1111731.7272815919        2.6256017488667697E-12   8.918370677064869E-14
1114294.5335917291        2.5903496050932305E-12   8.267587551012638E-14
1116863.2477805612        2.556827135062741E-12    7.704193068334374E-14
1119437.8834671525        2.5248444849350847E-12   7.214190897181987E-14
1122018.4543019629        2.494237542458718E-12    6.786242094877641E-14
1124604.9739669268        2.4648638442830574E-12   6.411069234371643E-14
1127197.4561755094        2.436599068647225E-12    6.080994403603546E-14
1129795.9146727975        2.409333883953634E-12    5.789579523977232E-14
1132400.3632355577        2.3829709428696224E-12   5.531362649192479E-14
1135010.8156723143        2.3574220320405367E-12   5.301712294260049E-14
1137627.2858234309        2.3326059627953263E-12   5.0968226957899295E-14
1140249.7875611696        2.3084482810992027E-12   4.9137876228415215E-14
1142878.3347897714        2.284882933884059E-12    4.7505579752455516E-14
1145512.941445536         2.2618537229081073E-12   4.605647549872633E-14
1148153.6214968818        2.239313187274578E-12    4.4777496994767115E-14
1150800.3889444356        2.2172195473678607E-12   4.3655356846298256E-14
1153453.257821093         2.1955340327191387E-12   4.267673088215311E-14
1156112.2421920982        2.174219611985049E-12    4.182922259401133E-14
1158777.3561551261        2.153240683968764E-12    4.110204566494932E-14
1161448.613840344         2.132563071466778E-12    4.0486238562616256E-14
1164126.0294104908        2.112153989087852E-12    3.9974595171172686E-14
1166809.617060963         2.0919819114590785E-12   3.956149433163636E-14
1169499.39101987          2.07201636216179E-12     3.924272603340068E-14
1172195.3655481304        2.0522276561796013E-12   3.901535124910773E-14
1174897.5549395303        2.032586618080924E-12    3.887760383022028E-14
1177605.9735208065        2.0130642865133375E-12   3.882883283758458E-14
1180320.6356517298        1.9936316075573204E-12   3.886948173581202E-14
1183041.5557251659        1.9742591145872913E-12   3.900110186231204E-14
1185768.7481671597        1.9549165892728027E-12   3.922639942176279E-14
1188502.2274370189        1.9355726962136586E-12   3.954931728994881E-14
1191242.0080273738        1.9161945818423338E-12   3.9975155027821766E-14
1193988.104464273         1.8967474262060238E-12   4.051073281621944E-14
1196740.5313072442        1.877193933819512E-12    4.1164607714379904E-14
1199499.3031493782        1.8574937466757277E-12   4.194735397857198E-14
1202264.4346174132        1.8376027584750823E-12   4.287192348530442E-14
1205035.9403717986        1.8174723038547354E-12   4.395410804214103E-14
1207813.8351067798        1.7970481894357948E-12   4.52131331792857E-14
1210598.1335504828        1.7762695242954917E-12   4.6672423823785776E-14
1213388.8504649762        1.7550672952330312E-12   4.836059743818041E-14
1216186.000646368         1.7333626158405704E-12   5.031276181598992E-14
1218989.5989248673        1.7110645564590315E-12   5.2572225912359794E-14
1221799.660164871         1.6880674325486358E-12   5.5192777722132406E-14
1224616.1992650488        1.6642473890923667E-12   5.824175096954515E-14
1227439.2311584083        1.6394580646823065E-12   6.180420451748797E-14
1230268.770812381         1.613525046218107E-12    6.59886949047725E-14
1233104.8332289096        1.5862387280372303E-12   7.093536637108562E-14
1235947.4334445095        1.5573450623624614E-12   7.68274699747287E-14
1238796.586530369         1.5265335293020048E-12   8.390805010193651E-14
1241652.307592412         1.4934214754555705E-12   9.25045717241717E-14
1244514.6117713845        1.4575338196149207E-12   1.0306600826806064E-13
1247383.5142429431        1.4182771533878229E-12   1.162199235264201E-13
1250259.0302177214        1.3749078929119538E-12   1.3286240209840934E-13
1253141.1749414157        1.3264964881076733E-12   1.5430329858077266E-13
1256029.9636948754        1.2718967799301233E-12   1.82507035839055E-13
1258925.411794166         1.209749671075998E-12    2.2050252761640024E-13
1261827.5345906706        1.1386067910131155E-12   2.730983600989233E-13
1264736.3474711522        1.0574219594962565E-12   3.4815044755187885E-13
1267651.865857845         9.671342835389951E-13    4.58778816488402E-13
1270574.105208542         8.754576775390807E-13    6.268183721530796E-13
1273503.081016663         8.105916991769577E-13    8.853678952877971E-13
1276438.8088113435        8.53701460734791E-13     1.2639211335662236E-12
1279381.3041575253        1.1649781613172712E-12   1.696981189223403E-12
1282330.5826560205        1.7998688238515587E-12   1.8776019738597226E-12
1285286.6599436153        2.3825743282053314E-12   1.5878126277523142E-12
1288249.551693135         2.6091574534399048E-12   1.1253003825077827E-12
1291219.2736135335        2.596922743109817E-12    7.603419565330459E-13
1294195.8414499862        2.503281379125076E-12    5.226924940884912E-13
1297179.2709839572        2.3972116784404738E-12   3.7262203127716503E-13
1300169.5780332899        2.2997575500554515E-12   2.7585471091337986E-13
1303166.7784523           2.2151256168314404E-12   2.1128431476435238E-13
1306170.8881318404        2.142542865365714E-12    1.6666694675129739E-13
1309181.922999407         2.080103799353193E-12    1.348429077959702E-13
1312199.899019204         2.0259171089316816E-12   1.1150718046808224E-13
1315224.8321922377        1.9783910327337972E-12   9.398505073182668E-14
1318256.7385564074        1.9362563052582058E-12   8.055954588877611E-14
1321295.6341865766        1.8985188995788064E-12   7.00933098811751E-14
1324341.5351946643        1.86440231432699E-12     6.180951521106542E-14
1327394.45772974          1.833296041565773E-12    5.5161345172774333E-14
1330454.41797809          1.8047135749505739E-12   4.975305974480441E-14
1333521.432163324         1.778260150069616E-12    4.5292495867742225E-14
1336595.5165464433        1.7536099503120945E-12   4.156267624434287E-14
1339676.6874259345        1.730491642798196E-12    3.84038059331929E-14
1342764.9611378643        1.7086795920917516E-12   3.5699790648247965E-14
1345860.354055947         1.6879875105398517E-12   3.336665767753666E-14
1348962.8825916534        1.6682624223710057E-12   3.1342753115104605E-14
1352072.563194278         1.6493785182314615E-12   2.958130334847476E-14
1355189.412351035         1.6312314101759887E-12   2.8045426586433985E-14
1358313.4465871542        1.613733301762556E-12    2.6705089622499062E-14
1361444.682465951         1.5968092317613928E-12   2.5535328198172698E-14
1364583.1365889239        1.5803942713493237E-12   2.451518054186063E-14
1367728.8255958494        1.5644314524290539E-12   2.3626991621130168E-14
1370881.766164855         1.5488702152282603E-12   2.285590813566349E-14
1374041.975012515         1.5336652131399112E-12   2.218948022928422E-14
1377209.4688939473        1.5187753626515692E-12   2.1617333534959085E-14
1380384.2646028837        1.5041630637499994E-12   2.1130895888523497E-14
1383566.3789717809        1.4897935411450704E-12   2.0723171081740182E-14
1386755.8288718895        1.4756342722626102E-12   2.038855487849073E-14
1389952.6312133525        1.4616544774383654E-12   2.0122689599801774E-14
1393156.8029453035        1.44782465338468E-12     1.9922354253942016E-14
1396368.3610559362        1.4341161342743193E-12   1.9785387911100517E-14
1399587.3225726178        1.4205006665005454E-12   1.971064492395153E-14
1402813.704561959         1.4069499837971197E-12   1.9697981702836937E-14
1406047.524129913         1.39343536913518E-12     1.9748276093618938E-14
1409288.7984218749        1.3799271887044818E-12   1.9863482033673576E-14
1412537.5446227554        1.3663943812661572E-12   2.0046724185317857E-14