% Model:              PLacek_MembTVNJ_ArticleDims_Rh20um_hg5um_To2MHz_PHedit.mph
% Version:            COMSOL 6.3.0.335
% Date:               May 22 2025, 10:54
% Dimension:          1
% Nodes:              708
% Expressions:        1
% Description:        Line graph
% Arc length (m)          real(xi)
0                         -2.7105747979618727E-11
4.2780521530280657E-7     -2.7104769392507452E-11
8.556104306056131E-7      -2.7101834989270997E-11
1.2834156459084197E-6     -2.7096944769909363E-11
1.7112208612112263E-6     -2.7090098734422535E-11
2.139026076514033E-6      -2.7081296882810548E-11
2.5668312918168394E-6     -2.707053921507336E-11
2.994636507119646E-6      -2.7057825731210998E-11
3.4224417224224526E-6     -2.7043156967033917E-11
3.85024693772526E-6       -2.7026538742618298E-11
4.278052153028066E-6      -2.7007971057964146E-11
4.705857368330872E-6      -2.6987453913071453E-11
5.133662583633679E-6      -2.6964987307940233E-11
5.561467798936486E-6      -2.694057124257047E-11
5.989273014239292E-6      -2.691420571696217E-11
6.410088963256641E-6      -2.6886373536782926E-11
6.830904912273991E-6      -2.6856666745277123E-11
7.25172086129134E-6       -2.6825085342444772E-11
7.672536810308689E-6      -2.6791629328285867E-11
8.09335275932604E-6       -2.6756298702800413E-11
8.514168708343389E-6      -2.6719093465988397E-11
8.934984657360738E-6      -2.6680013617849837E-11
9.335662524497946E-6      -2.66410680033507E-11
9.736340391635153E-6      -2.660043745144262E-11
1.0137018258772359E-5     -2.655812196212559E-11
1.0537696125909567E-5     -2.6514121535399603E-11
1.0938373993046773E-5     -2.646843617126469E-11
1.1339051860183981E-5     -2.6421065869720814E-11
1.1739729727321188E-5     -2.6372010630768E-11
1.2124875559851212E-5     -2.6323276493068624E-11
1.2510021392381236E-5     -2.62730015724899E-11
1.289516722491126E-5      -2.6221185869031816E-11
1.3280313057441285E-5     -2.6167829382694382E-11
1.366545888997131E-5      -2.6112932113477603E-11
1.4050604722501333E-5     -2.6056494061381458E-11
1.4435750555031359E-5     -2.599851522640597E-11
1.481289903671961E-5      -2.594025563586026E-11
1.519004751840786E-5      -2.588053508275623E-11
1.5567196000096113E-5     -2.581935356709388E-11
1.5944344481784364E-5     -2.5756711088873217E-11
1.6321492963472616E-5     -2.5692607648094242E-11
1.6698641445160864E-5     -2.562704324475695E-11
1.7075789926849116E-5     -2.556001787886134E-11
1.7433901167700504E-5     -2.5495034012532822E-11
1.779201240855189E-5      -2.5428744983019257E-11
1.8150123649403275E-5     -2.5361150790320648E-11
1.850823489025466E-5      -2.529225143443699E-11
1.886634613110605E-5      -2.52220469153683E-11
1.9224457371957433E-5     -2.5150537233114552E-11
1.958256861280882E-5      -2.5077722387675764E-11
1.9940481295372828E-5     -2.5003647178643973E-11
2.0298393977936837E-5     -2.4928275085160726E-11
2.0656306660500846E-5     -2.4851606107226014E-11
2.1014219343064855E-5     -2.477364024483985E-11
2.137213202562886E-5      -2.469437749800223E-11
2.173004470819287E-5      -2.4613817866713144E-11
2.208795739075688E-5      -2.45319613509726E-11
2.245944263531065E-5      -2.4445631026753152E-11
2.283092787986442E-5      -2.435791741464763E-11
2.3202413124418192E-5     -2.4268820514656026E-11
2.3573898368971962E-5     -2.417834032677835E-11
2.3945383613525733E-5     -2.40864768510146E-11
2.4316868858079504E-5     -2.3993230087364764E-11
2.4688354102633274E-5     -2.3898600035828856E-11
2.5091993018119224E-5     -2.379421909631341E-11
2.549563193360517E-5      -2.3688233056606566E-11
2.5899270849091118E-5     -2.3580641916708318E-11
2.6302909764577068E-5     -2.3471445676618672E-11
2.6706548680063018E-5     -2.3360644336337635E-11
2.7110187595548965E-5     -2.324823789586519E-11
2.7513826511034915E-5     -2.313422635520135E-11
2.793795334649159E-5      -2.301271366702821E-11
2.8362080181948263E-5     -2.2889471684786187E-11
2.8786207017404936E-5     -2.2764500408475274E-11
2.9210333852861612E-5     -2.263779983809548E-11
2.9634460688318288E-5     -2.250936997364681E-11
3.005858752377496E-5      -2.2379210815129244E-11
3.0482714359231637E-5     -2.2247322362542802E-11
3.0910519574534446E-5     -2.2112561236514564E-11
3.133832478983725E-5      -2.197609512809188E-11
3.176613000514005E-5      -2.1837924037274742E-11
3.219393522044286E-5      -2.169804796406315E-11
3.262174043574567E-5      -2.155646690845712E-11
3.304954565104847E-5      -2.1413180870456635E-11
3.347735086635128E-5      -2.1268189850061698E-11
3.3905156081654086E-5     -2.1121522341578315E-11
3.4332961296956895E-5     -2.0973213236590418E-11
3.47607665122597E-5       -2.0823262535098005E-11
3.518857172756251E-5      -2.0671670237101076E-11
3.5616376942865314E-5     -2.051843634259964E-11
3.604418215816812E-5      -2.0363560851593683E-11
3.647198737347093E-5      -2.0207043764083214E-11
3.689979258877374E-5      -2.0048917875968445E-11
3.732759780407654E-5      -1.9889221715224132E-11
3.775540301937935E-5      -1.9727955281850273E-11
3.818320823468215E-5      -1.9565118575846862E-11
3.861101344998497E-5      -1.9400711597213916E-11
3.903881866528777E-5      -1.9234734345951412E-11
3.946662388059058E-5      -1.9067186822059372E-11
3.989442909589339E-5      -1.889810578130701E-11
4.032223431119619E-5      -1.872753304709947E-11
4.075003952649899E-5      -1.8555468619436747E-11
4.117784474180181E-5      -1.838191249831885E-11
4.160564995710461E-5      -1.8206864683745772E-11
4.203345517240741E-5      -1.8030325175717507E-11
4.246126038771022E-5      -1.785229397423407E-11
4.288906560301303E-5      -1.7672811417572776E-11
4.331687081831583E-5      -1.7491922395257186E-11
4.374467603361863E-5      -1.73096269072873E-11
4.417248124892144E-5      -1.712592495366312E-11
4.460028646422425E-5      -1.6940816534384652E-11
4.502809167952706E-5      -1.675430164945188E-11
4.545589689482986E-5      -1.656638029886482E-11
4.588370211013267E-5      -1.6377096131572683E-11
4.631150732543547E-5      -1.618649682471137E-11
4.673931254073827E-5      -1.5994582378280877E-11
4.716711775604109E-5      -1.5801352792281205E-11
4.759492297134389E-5      -1.5606808066712353E-11
4.80227281866467E-5       -1.541094820157432E-11
4.845053340194951E-5      -1.5213773196867114E-11
4.8878338617252316E-5     -1.5015329722696252E-11
4.9306143832555124E-5     -1.481566798884666E-11
4.9733949047857926E-5     -1.461478799531833E-11
5.0161754263160735E-5     -1.4412689742111261E-11
5.0589559478463544E-5     -1.4209373229225466E-11
5.1017364693766346E-5     -1.4004838456660928E-11
5.1445169909069154E-5     -1.379908542441766E-11
5.187297512437196E-5      -1.3592163553612384E-11
5.230078033967478E-5      -1.3384125332347717E-11
5.272858555497758E-5      -1.3174970760623663E-11
5.315639077028039E-5      -1.296469983844022E-11
5.35841959855832E-5       -1.2753312565797397E-11
5.4012001200886006E-5     -1.2540808942695177E-11
5.4439806416188815E-5     -1.2327188969133572E-11
5.4867611631491624E-5     -1.2112504554125564E-11
5.529541684679443E-5      -1.1896810207931296E-11
5.5723222062097234E-5     -1.1680105930550772E-11
5.6151027277400036E-5     -1.1462391721983993E-11
5.657883249270284E-5      -1.124366758223096E-11
5.7006637708005654E-5     -1.102393351129167E-11
5.7434442923308456E-5     -1.0803189509166124E-11
5.786224813861127E-5      -1.0581489711390276E-11
5.829005335391407E-5      -1.0358890393102043E-11
5.8717858569216875E-5     -1.0135391554301425E-11
5.914566378451969E-5      -9.91099319498842E-12
5.957346899982249E-5      -9.685695315163036E-12
6.00012742151253E-5       -9.45949791482526E-12
6.042907943042811E-5      -9.232400993975104E-12
6.085688464573092E-5      -9.004460653685209E-12
6.128468986103373E-5      -8.775734675340063E-12
6.171249507633653E-5      -8.546223058939664E-12
6.214030029163933E-5      -8.315925804484012E-12
6.256810550694215E-5      -8.084842911973115E-12
6.299591072224495E-5      -7.852974381406962E-12
6.342371593754775E-5      -7.62032021278556E-12
6.385152115285055E-5      -7.386938211317734E-12
6.427932636815337E-5      -7.1528874046072736E-12
6.470713158345617E-5      -6.9181677926541815E-12
6.513493679875897E-5      -6.682779375458456E-12
6.556274201406177E-5      -6.4467221530201E-12
6.599054722936459E-5      -6.209996125339109E-12
6.641835244466739E-5      -5.972601292415486E-12
6.68461576599702E-5       -5.734596901338834E-12
6.727396287527301E-5      -5.496042964794062E-12
6.770176809057582E-5      -5.256939482781169E-12
6.812957330587863E-5      -5.017286455300154E-12
6.855737852118144E-5      -4.777083882351022E-12
6.898518373648426E-5      -4.5363317639337654E-12
6.941298895178706E-5      -4.295030100048391E-12
6.984079416708987E-5      -4.053239316503592E-12
7.026859938239266E-5      -3.81102014931057E-12
7.069640459769546E-5      -3.568372598469324E-12
7.112420981299828E-5      -3.3252966639798545E-12
7.15520150283011E-5       -3.0817923458421626E-12
7.197982024360388E-5      -2.8378596440562464E-12
7.24076254589067E-5       -2.5934985586221076E-12
7.283543067420951E-5      -2.3487704302456068E-12
7.326323588951232E-5      -2.1037364565191805E-12
7.369104110481512E-5      -1.8583966374428275E-12
7.411884632011793E-5      -1.6127509730165482E-12
7.454665153542074E-5      -1.3667994632403433E-12
7.497445675072354E-5      -1.1205421081142112E-12
7.540226196602635E-5      -8.739789076381534E-13
7.583006718132917E-5      -6.27171853383846E-13
7.625787239663197E-5      -3.801823435102045E-13
7.668567761193477E-5      -1.3301037801722905E-13
7.711348282723757E-5      1.143440430950806E-13
7.754128804254038E-5      3.6188091982672404E-13
7.796909325784319E-5      6.096002521777017E-13
7.8396898473146E-5        8.575020401480132E-13
7.88247036884488E-5       1.1055239049480187E-12
7.925250890375161E-5      1.3536045073443434E-12
7.968031411905441E-5      1.6017438473369865E-12
8.010811933435721E-5      1.849941924925949E-12
8.053592454966002E-5      2.098198740111231E-12
8.096372976496282E-5      2.3465142928928306E-12
8.139153498026563E-5      2.5948885832707504E-12
8.181934019556845E-5      2.843259107809947E-12
8.224714541087125E-5      3.0915648433088215E-12
8.267495062617405E-5      3.3398057897673744E-12
8.310275584147686E-5      3.587981947185605E-12
8.353056105677967E-5      3.8360933155635155E-12
8.395836627208249E-5      4.084139894901103E-12
8.438617148738529E-5      4.332121685198369E-12
8.48139767026881E-5       4.579976319082357E-12
8.52417819179909E-5       4.8276433431947925E-12
8.566958713329371E-5      5.075122757535676E-12
8.609739234859652E-5      5.322414562105007E-12
8.652519756389932E-5      5.569518756902787E-12
8.695300277920214E-5      5.8164353419290125E-12
8.738080799450494E-5      6.0631643171836875E-12
8.780861320980776E-5      6.309643709237044E-12
8.823641842511056E-5      6.555813884423662E-12
8.866422364041336E-5      6.801674842743542E-12
8.909202885571618E-5      7.047226584196683E-12
8.951983407101899E-5      7.292469108783088E-12
8.99476392863218E-5       7.537402416502753E-12
9.037544450162461E-5      7.78202650735568E-12
9.080324971692743E-5      8.026280055999893E-12
9.123105493223023E-5      8.270104494334063E-12
9.165886014753303E-5      8.513499822358182E-12
9.208666536283583E-5      8.75646604007226E-12
9.251447057813863E-5      8.999003147476294E-12
9.294227579344145E-5      9.24111114457028E-12
9.337008100874425E-5      9.482790031354224E-12
9.379788622404705E-5      9.723979381801952E-12
9.422569143934985E-5      9.964621932606286E-12
9.465349665465267E-5      1.0204717683767226E-11
9.508130186995547E-5      1.044426663528477E-11
9.550910708525827E-5      1.0683268787158925E-11
9.593691230056108E-5      1.0921724139389681E-11
9.636471751586388E-5      1.1159632691977047E-11
9.679252273116668E-5      1.139693516884456E-11
9.72203279464695E-5       1.1633575832079527E-11
9.764813316177228E-5      1.1869554681681938E-11
9.80759383770751E-5       1.2104871717651805E-11
9.85037435923779E-5       1.2339526939989125E-11
9.893154880768072E-5      1.2573520348693891E-11
9.935935402298352E-5      1.2806851943766111E-11
9.978715923828633E-5      1.3039463810025873E-11
1.0021496445358912E-4     1.3271301975771163E-11
1.0064276966889192E-4     1.3502366441001974E-11
1.0107057488419474E-4     1.373265720571831E-11
1.0149838009949755E-4     1.3962174269920177E-11
1.0192618531480036E-4     1.4190917633607563E-11
1.0235399053010316E-4     1.4418887296780477E-11
1.0278179574540597E-4     1.4646026972988346E-11
1.0320960096070879E-4     1.4872284671294713E-11
1.0363740617601158E-4     1.5097660391699583E-11
1.0406521139131439E-4     1.532215413420295E-11
1.0449301660661721E-4     1.5545765898804823E-11
1.0492082182192001E-4     1.5768495685505187E-11
1.0534862703722283E-4     1.5990343494304056E-11
1.0577643225252563E-4     1.6211254877391505E-11
1.0620423746782844E-4     1.6431180017992333E-11
1.0663204268313123E-4     1.6650118916106528E-11
1.0705984789843405E-4     1.6868071571734102E-11
1.0748765311373686E-4     1.7085037984875055E-11
1.0791545832903966E-4     1.7301018155529375E-11
1.0834326354434247E-4     1.7516012083697074E-11
1.0877106875964528E-4     1.7729967368514107E-11
1.0919887397494808E-4     1.7942836574147556E-11
1.0962667919025089E-4     1.8154619700597406E-11
1.100544844055537E-4      1.836531674786367E-11
1.104822896208565E-4      1.857492771594635E-11
1.1091009483615932E-4     1.8783452604845435E-11
1.1133790005146212E-4     1.899089141456093E-11
1.1176570526676494E-4     1.9197194001395245E-11
1.1219351048206774E-4     1.9402315489617385E-11
1.1262131569737054E-4     1.9606255879227357E-11
1.1304912091267334E-4     1.9809015170225156E-11
1.1347692612797616E-4     2.0010593362610784E-11
1.1390473134327895E-4     2.0210990456384237E-11
1.1433253655858176E-4     2.041020645154552E-11
1.1476034177388458E-4     2.0608193655022308E-11
1.1518814698918738E-4     2.0804909935205517E-11
1.1561595220449018E-4     2.100035529209514E-11
1.16043757419793E-4       2.119452972569118E-11
1.1647156263509581E-4     2.138743323599365E-11
1.1689936785039863E-4     2.1579065823002528E-11
1.1732717306570143E-4     2.176942748671783E-11
1.1775497828100424E-4     2.1958473172176602E-11
1.1818278349630703E-4     2.2146163641087132E-11
1.1861058871160983E-4     2.2332498893449405E-11
1.1903839392691265E-4     2.2517478929263432E-11
1.1946619914221545E-4     2.2701103748529226E-11
1.1989400435751825E-4     2.288337335124676E-11
1.2032180957282107E-4     2.306428773741605E-11
1.2074961478812388E-4     2.3243804656249026E-11
1.2117742000342669E-4     2.342188791803501E-11
1.2160522521872949E-4     2.3598537522773995E-11
1.2203303043403229E-4     2.3773753470465992E-11
1.2246083564933512E-4     2.3947535761110993E-11
1.2288864086463792E-4     2.4119884394709E-11
1.2331644607994072E-4     2.4290799371260017E-11
1.2374425129524352E-4     2.4460241406164417E-11
1.2417205651054633E-4     2.4628177492484474E-11
1.2459986172584913E-4     2.4794607630220184E-11
1.2502766694115193E-4     2.4959531819371563E-11
1.2545547215645473E-4     2.5122950059938602E-11
1.2588327737175756E-4     2.5284862351921294E-11
1.2631108258706036E-4     2.544526869531965E-11
1.267388878023632E-4      2.5604132918204225E-11
1.2716669301766597E-4     2.576142531694037E-11
1.2759449823296877E-4     2.5917145891528097E-11
1.280223034482716E-4      2.6071294641967397E-11
1.284501086635744E-4      2.6223871568258285E-11
1.288779138788772E-4      2.637487667040074E-11
1.2930571909418E-4        2.6524309948394773E-11
1.297335243094828E-4      2.667213847503909E-11
1.301613295247856E-4      2.6818335956184928E-11
1.305891347400884E-4      2.6962902391832294E-11
1.310169399553912E-4      2.7105837781981194E-11
1.3144474517069401E-4     2.7247142126631627E-11
1.3187255038599684E-4     2.738681542578358E-11
1.3230035560129964E-4     2.7524857679437067E-11
1.3272816081660245E-4     2.7661239320317087E-11
1.3315596603190525E-4     2.7795937563850237E-11
1.3358377124720805E-4     2.7928952410036512E-11
1.3401157646251088E-4     2.8060283858875918E-11
1.3443938167781368E-4     2.818993191036846E-11
1.3486718689311648E-4     2.8317896564514116E-11
1.3529499210841929E-4     2.844417782131291E-11
1.357227973237221E-4      2.856874959135741E-11
1.361506025390249E-4      2.8691592653498257E-11
1.365784077543277E-4      2.8812707007735438E-11
1.370062129696305E-4      2.8932092654068974E-11
1.374340181849333E-4      2.9049749592498865E-11
1.378618234002361E-4      2.916567782302509E-11
1.382896286155389E-4      2.927987734564766E-11
1.387174338308417E-4      2.9392325610299135E-11
1.391452390461445E-4      2.9503007061548983E-11
1.395730442614473E-4      2.961192169939721E-11
1.4000084947675013E-4     2.971906952384381E-11
1.4042865469205294E-4     2.98244505348888E-11
1.4085645990735574E-4     2.992806473253216E-11
1.4128426512265854E-4     3.00299121167739E-11
1.4171207033796137E-4     3.012997378942831E-11
1.4213987555326417E-4     3.022823785961587E-11
1.4256768076856697E-4     3.032470432733657E-11
1.4299548598386977E-4     3.041937319259039E-11
1.4342329119917258E-4     3.051224445537737E-11
1.4385109641447538E-4     3.0603318115697473E-11
1.442789016297782E-4      3.069259417355072E-11
1.44706706845081E-4       3.078005740341444E-11
1.451345120603838E-4      3.08656996471558E-11
1.4556231727568659E-4     3.094952090477481E-11
1.4599012249098941E-4     3.103152117627148E-11
1.4641792770629222E-4     3.111170046164579E-11
1.46845732921595E-4       3.119005876089775E-11
1.4727353813689782E-4     3.126659607402736E-11
1.4770134335220065E-4     3.134130091337151E-11
1.4812914856750345E-4     3.141416885032881E-11
1.4855695378280625E-4     3.1485199884899285E-11
1.4898475899810905E-4     3.155439401708292E-11
1.4941256421341186E-4     3.1621751246879724E-11
1.4984036942871466E-4     3.168727157428968E-11
1.502681746440175E-4      3.175095499931281E-11
1.5069597985932032E-4     3.1812793792862376E-11
1.511237850746231E-4      3.187278725593497E-11
1.515515902899259E-4      3.1930935388530576E-11
1.5197939550522872E-4     3.19872381906492E-11
1.5240720072053152E-4     3.204169566229085E-11
1.5283500593583433E-4     3.2094307803455516E-11
1.5326281115113713E-4     3.21450746141432E-11
1.5369061636643996E-4     3.219399213437935E-11
1.5411842158174273E-4     3.2241063377329374E-11
1.5454622679704553E-4     3.228628834299325E-11
1.5497403201234834E-4     3.232966703137098E-11
1.5540183722765116E-4     3.2371199442462575E-11
1.5582964244295397E-4     3.241088557626803E-11
1.5625744765825677E-4     3.244872543278734E-11
1.566852528735596E-4      3.248471881358082E-11
1.571130580888624E-4      3.251887241640355E-11
1.5754086330416517E-4     3.255118624125552E-11
1.57968668519468E-4       3.2581660288136754E-11
1.583964737347708E-4      3.261029455704723E-11
1.588242789500736E-4      3.2637089047986954E-11
1.592520841653764E-4      3.266204376095592E-11
1.596798893806792E-4      3.268516224364374E-11
1.60107694595982E-4       3.270645482544536E-11
1.6053549981128481E-4     3.272592150636076E-11
1.6096330502658764E-4     3.274356228638995E-11
1.6139111024189047E-4     3.275937716553294E-11
1.6181891545719325E-4     3.2773366143789715E-11
1.6224672067249608E-4     3.2785529221160283E-11
1.6267452588779888E-4     3.2795873652047615E-11
1.6310233110310168E-4     3.280441333628156E-11
1.6353013631840448E-4     3.281114827386213E-11
1.6395794153370728E-4     3.281607846478929E-11
1.6438574674901009E-4     3.281920390906309E-11
1.6481355196431292E-4     3.282052460668348E-11
1.6524135717961572E-4     3.282004055765049E-11
1.6566916239491852E-4     3.281776267206939E-11
1.6609696761022132E-4     3.281370834227286E-11
1.665247728255241E-4      3.280787756826088E-11
1.6695257804082692E-4     3.280027035003347E-11
1.6738038325612973E-4     3.2790886687590645E-11
1.6780818847143253E-4     3.277972658093237E-11
1.6823599368673533E-4     3.2766790030058666E-11
1.6866379890203816E-4     3.275209153419085E-11
1.6909160411734093E-4     3.273565188558135E-11
1.6951940933264374E-4     3.271747108423017E-11
1.6994721454794657E-4     3.269754913013731E-11
1.7037501976324937E-4     3.267588602330278E-11
1.7080282497855217E-4     3.265248176372655E-11
1.7123063019385497E-4     3.2627336351408647E-11
1.716584354091578E-4      3.260046779300633E-11
1.7208624062446057E-4     3.2571900174179805E-11
1.7251404583976338E-4     3.254163349492907E-11
1.7294185105506618E-4     3.250966775525412E-11
1.73369656270369E-4       3.2476002955154985E-11
1.737974614856718E-4      3.244063909463162E-11
1.742252667009746E-4      3.240357617368406E-11
1.7465307191627744E-4     3.236483561028254E-11
1.7508087713158024E-4     3.232444466348236E-11
1.7550868234688304E-4     3.228240333328353E-11
1.7593648756218587E-4     3.2238711619686035E-11
1.7636429277748868E-4     3.219336952268991E-11
1.767920979927915E-4      3.214637704229512E-11
1.772199032080943E-4      3.2097734178501674E-11
1.776477084233971E-4      3.204746565050335E-11
1.780755136386999E-4      3.199560175776031E-11
1.785033188540027E-4      3.1942142500272563E-11
1.7893112406930551E-4     3.1887087878040114E-11
1.793589292846083E-4      3.1830437891062965E-11
1.7978673449991112E-4     3.177219253934109E-11
1.802145397152139E-4      3.1712351822874517E-11
1.806423449305167E-4      3.165094363852088E-11
1.810701501458195E-4      3.1588001180787044E-11
1.8149795536112233E-4     3.1523524449672975E-11
1.8192576057642513E-4     3.145751344517869E-11
1.8235356579172793E-4     3.138996816730421E-11
1.8278137100703073E-4     3.1320888616049486E-11
1.8320917622233353E-4     3.125027479141456E-11
1.8363698143763634E-4     3.1178157631452747E-11
1.8406478665293914E-4     3.1104573068652286E-11
1.8449259186824194E-4     3.102952110301316E-11
1.8492039708354474E-4     3.0953001734535377E-11
1.8534820229884757E-4     3.087501496321895E-11
1.8577600751415034E-4     3.079556078906385E-11
1.8620381272945317E-4     3.0714639212070096E-11
1.86631617944756E-4       3.063228406273236E-11
1.870594231600588E-4      3.054853384345345E-11
1.874872283753616E-4      3.046338855423335E-11
1.879150335906644E-4      3.037684819507209E-11
1.8834283880596726E-4     3.0288912765969646E-11
1.8877064402127007E-4     3.019958226692603E-11
1.8919844923657287E-4     3.010885669794123E-11
1.8962625445187567E-4     3.0016772621580833E-11
1.9005405966717847E-4     2.992337093184526E-11
1.9048186488248125E-4     2.9828651628734496E-11
1.9090967009778408E-4     2.973261471224855E-11
1.9133747531308685E-4     2.9635260182387436E-11
1.9176528052838965E-4     2.953658803915113E-11
1.9219308574369245E-4     2.943659828253964E-11
1.9262089095899528E-4     2.9335330035921266E-11
1.9304869617429806E-4     2.923282639712208E-11
1.9347650138960086E-4     2.912908736614206E-11
1.939043066049037E-4      2.9024112942981235E-11
1.943321118202065E-4      2.8917903127639597E-11
1.947599170355093E-4      2.8810457920117127E-11
1.951877222508121E-4      2.8701777320413845E-11
1.9561552746611492E-4     2.8591902831295882E-11
1.960433326814177E-4      2.848087955802042E-11
1.964711378967205E-4      2.8368707500587465E-11
1.968989431120233E-4      2.825538665899701E-11
1.973267483273261E-4      2.8140917033249073E-11
1.9775455354262893E-4     2.8025298623343624E-11
1.9818235875793174E-4     2.790853142928069E-11
1.9861016397323456E-4     2.779065914248992E-11
1.9903796918853734E-4     2.767172867150804E-11
1.9946577440384014E-4     2.7551740016335054E-11
1.9989357961914297E-4     2.7430693176970958E-11
2.0032138483444577E-4     2.7308588153415763E-11
2.0074919004974857E-4     2.7185424945669447E-11
2.0117699526505138E-4     2.706120355373203E-11
2.0160480048035418E-4     2.6935969658474295E-11
2.02032605695657E-4       2.680977176070246E-11
2.024604109109598E-4      2.6682609860416522E-11
2.0288821612626264E-4     2.6554483957616492E-11
2.0331602134156544E-4     2.6425394052302375E-11
2.0374382655686824E-4     2.6295340144474145E-11
2.0417163177217107E-4     2.6164322234131828E-11
2.0459943698747387E-4     2.603238778475273E-11
2.0502724220277665E-4     2.589958667247247E-11
2.0545504741807945E-4     2.5765918897291037E-11
2.0588285263338225E-4     2.5631384459208442E-11
2.0631065784868508E-4     2.5495983358224688E-11
2.0673846306398786E-4     2.5359715594339756E-11
2.0716626827929066E-4     2.5222581167553668E-11
2.0759407349459349E-4     2.5084629110409676E-11
2.080218787098963E-4      2.4945910452451535E-11
2.084496839251991E-4      2.480642519367925E-11
2.0887748914050192E-4     2.4666173334092813E-11
2.0930529435580472E-4     2.4525154873692234E-11
2.0973309957110755E-4     2.43833698124775E-11
2.1016090478641035E-4     2.4240818150448623E-11
2.1058871000171318E-4     2.4097550269905406E-11
2.1101651521701598E-4     2.3953618127864493E-11
2.1144432043231876E-4     2.3809021724325883E-11
2.118721256476216E-4      2.3663761059289575E-11
2.1229993086292436E-4     2.3517836132755578E-11
2.127277360782272E-4      2.3371246944723874E-11
2.1315554129353E-4        2.3223993495194478E-11
2.1358334650883282E-4     2.3076127292101423E-11
2.140111517241356E-4      2.292770099096946E-11
2.144389569394384E-4      2.2778714591798597E-11
2.1486676215474123E-4     2.262916809458883E-11
2.1529456737004406E-4     2.2479061499340166E-11
2.1572237258534683E-4     2.232839480605259E-11
2.1615017780064966E-4     2.2177168014726117E-11
2.1657798301595246E-4     2.2025433530967895E-11
2.1700578823125526E-4     2.1873244477814896E-11
2.1743359344655804E-4     2.172060085526711E-11
2.1786139866186087E-4     2.1567502663324543E-11
2.1828920387716367E-4     2.1413949901987207E-11
2.1871700909246647E-4     2.1259942571255078E-11
2.1914481430776927E-4     2.1105480671128173E-11
2.1957261952307208E-4     2.0950617274076373E-11
2.2000042473837488E-4     2.0795405738622823E-11
2.2042822995367768E-4     2.0639846064767522E-11
2.2085603516898048E-4     2.048393825251047E-11
2.212838403842833E-4      2.032768230185168E-11
2.2171164559958608E-4     2.017107821279113E-11
2.2213945081488891E-4     2.0014125985328838E-11
2.2256725603019174E-4     1.985687912614114E-11
2.2299506124549454E-4     1.9699390997184356E-11
2.2342286646079735E-4     1.9541661598458488E-11
2.2385067167610018E-4     1.9383690929963532E-11
2.24278476891403E-4       1.9225478991699497E-11
2.247062821067058E-4      1.906702578366637E-11
2.251340873220086E-4      1.890833130586416E-11
2.2556189253731144E-4     1.8749449265680685E-11
2.259896977526142E-4      1.8590432797427237E-11
2.2641750296791701E-4     1.8431281901103806E-11
2.2684530818321982E-4     1.8271996576710395E-11
2.2727311339852262E-4     1.8112576824247013E-11
2.2770091861382545E-4     1.7953022643713652E-11
2.2812872382912825E-4     1.779333403511031E-11
2.2855652904443108E-4     1.7633564673205117E-11
2.2898433425973385E-4     1.7473767235565492E-11
2.2941213947503665E-4     1.7313941722191434E-11
2.2983994469033948E-4     1.7154088133082945E-11
2.3026774990564229E-4     1.699420646824003E-11
2.306955551209451E-4      1.6834296727662678E-11
2.311233603362479E-4      1.6674358911350897E-11
2.3155116555155072E-4     1.6514446429296787E-11
2.319789707668535E-4      1.6354611276183367E-11
2.324067759821563E-4      1.619485345201063E-11
2.328345811974591E-4      1.6035172956778584E-11
2.3326238641276193E-4     1.5875569790487232E-11
2.336901916280647E-4      1.571604395313656E-11
2.3411799684336753E-4     1.5556595444726578E-11
2.3454580205867033E-4     1.5397277180488914E-11
2.3497360727397316E-4     1.5238140250016422E-11
2.354014124892759E-4      1.5079184653309095E-11
2.3582921770457876E-4     1.492041039036694E-11
2.3625702291988157E-4     1.476181746118996E-11
2.3668482813518437E-4     1.460340586577814E-11
2.3711263335048717E-4     1.4445175604131499E-11
2.3754043856578997E-4     1.4287178869896073E-11
2.3796824378109277E-4     1.4129465630257332E-11
2.3839604899639558E-4     1.397203588521527E-11
2.3882385421169838E-4     1.3814889634769888E-11
2.3925165942700118E-4     1.3658026878921189E-11
2.39679464642304E-4       1.3501447617669167E-11
2.401072698576068E-4      1.3345151851013827E-11
2.4053507507290964E-4     1.3189190828323394E-11
2.4096288028821244E-4     1.3033613182875957E-11
2.4139068550351524E-4     1.2878418914671512E-11
2.4181849071881805E-4     1.2723608023710065E-11
2.4224629593412085E-4     1.2569180509991615E-11
2.426741011494237E-4      1.2415136373516155E-11
2.431019063647265E-4      1.2261475614283692E-11
2.4352971158002933E-4     1.2108248319779216E-11
2.439575167953321E-4      1.1955501584596362E-11
2.443853220106349E-4      1.1803235408735128E-11
2.448131272259377E-4      1.1651449792195515E-11
2.452409324412405E-4      1.150014473497753E-11
2.456687376565433E-4      1.134932023708116E-11
2.460965428718461E-4      1.1198976298506413E-11
2.46524348087149E-4       1.1049161633263374E-11
2.469521533024517E-4      1.0899921600082237E-11
2.473799585177545E-4      1.0751256198962998E-11
2.478077637330573E-4      1.0603165429905661E-11
2.482355689483602E-4      1.0455649292910226E-11
2.48663374163663E-4       1.0308707787976689E-11
2.490911793789658E-4      1.0162340915105054E-11
2.495189845942686E-4      1.0016595810155102E-11
2.499467898095714E-4      9.871515907252382E-12
2.503745950248742E-4      9.72710120639689E-12
2.50802400240177E-4       9.583351707588633E-12
2.5123020545547985E-4     9.440267410827608E-12
2.5165801067078265E-4     9.29784831611381E-12
2.5208581588608545E-4     9.156094423447245E-12
2.5251362110138826E-4     9.015051093651653E-12
2.5294142631669106E-4     8.874759656742765E-12
2.533692315319938E-4      8.735220112720578E-12
2.5379703674729666E-4     8.596432461585094E-12
2.5422484196259946E-4     8.45839670333632E-12
2.5465264717790227E-4     8.321112837974243E-12
2.5508045239320507E-4     8.184580865498873E-12
2.5550825760850787E-4     8.048844183436124E-12
2.559360628238107E-4      7.913941848186039E-12
2.563638680391135E-4      7.779873859748619E-12
2.5679167325441633E-4     7.646640218123858E-12
2.5721947846971913E-4     7.514240923311766E-12