% Model:              ModelMicPlate_Rh20um_hg5um_Refined_MaterialDefPolySilicon.mph
% Version:            COMSOL 6.3.0.335
% Date:               May 21 2025, 13:46
% Dimension:          1
% Nodes:              708
% Expressions:        1
% Description:        Line graph
% Arc length (m)          real(w2)
0                         -9.971670785936464E-11
4.0816326530612243E-7     -9.971629667326824E-11
8.163265306122445E-7      -9.971506389316878E-11
1.224489795918367E-6      -9.971300951906622E-11
1.632653061224489E-6      -9.97101335509606E-11
2.0408163265306117E-6     -9.970643598885189E-11
2.448979591836734E-6      -9.97019168327401E-11
2.857142857142856E-6      -9.969657608262524E-11
3.265306122448978E-6      -9.96904138063248E-11
3.6734693877551007E-6     -9.968343070684697E-11
4.0816326530612225E-6     -9.967562678419172E-11
4.489795918367345E-6      -9.96670020383591E-11
4.897959183673468E-6      -9.965755646934907E-11
5.30612244897959E-6       -9.964729007716166E-11
5.714285714285712E-6      -9.963620286179684E-11
6.1224489795918346E-6     -9.962429530153106E-11
6.530612244897958E-6      -9.961156847424223E-11
6.9387755102040806E-6     -9.959802237993029E-11
7.3469387755102015E-6     -9.958365701859531E-11
7.755102040816326E-6      -9.956847239023727E-11
8.163265306122448E-6      -9.955246849485615E-11
8.571428571428571E-6      -9.953564533245194E-11
8.979591836734694E-6      -9.951800369931855E-11
9.387755102040816E-6      -9.949954515027435E-11
9.795918367346939E-6      -9.948026968531929E-11
1.020408163265306E-5      -9.946017730445343E-11
1.0612244897959184E-5     -9.943926800767676E-11
1.1020408163265308E-5     -9.941754179498925E-11
1.1428571428571429E-5     -9.939499866639093E-11
1.1836734693877552E-5     -9.937163969152042E-11
1.2244897959183674E-5     -9.934746691054421E-11
1.2653061224489795E-5     -9.932248032346223E-11
1.3061224489795918E-5     -9.929667993027455E-11
1.346938775510204E-5      -9.927006573098116E-11
1.3877551020408165E-5     -9.924263772558204E-11
1.4285714285714285E-5     -9.92143959140772E-11
1.4693877551020408E-5     -9.918534181239582E-11
1.510204081632653E-5      -9.915547776920027E-11
1.5510204081632655E-5     -9.912480378449047E-11
1.5918367346938776E-5     -9.909331985826649E-11
1.63265306122449E-5       -9.90610259905283E-11
1.6734693877551024E-5     -9.90279221812759E-11
1.7142857142857145E-5     -9.899400843050932E-11
1.755102040816327E-5      -9.895928671429768E-11
1.795918367346939E-5      -9.892375971857747E-11
1.8367346938775515E-5     -9.888742744334861E-11
1.8775510204081636E-5     -9.885028988861115E-11
1.9183673469387756E-5     -9.881234705436507E-11
1.959183673469388E-5      -9.877359894061039E-11
2.0E-5                    -9.873404554734709E-11
2.042553191489362E-5      -9.869195288294701E-11
2.0851063829787234E-5     -9.86489911689357E-11
2.1276595744680852E-5     -9.860516040531313E-11
2.1702127659574467E-5     -9.856046059207933E-11
2.212765957446808E-5      -9.85148917292343E-11
2.2553191489361703E-5     -9.846845381677799E-11
2.2978723404255317E-5     -9.842114685471045E-11
2.3404255319148935E-5     -9.837297213359223E-11
2.382978723404255E-5      -9.832393518564246E-11
2.4255319148936165E-5     -9.827403601086109E-11
2.4680851063829783E-5     -9.822327460924815E-11
2.51063829787234E-5       -9.817165098080368E-11
2.5531914893617015E-5     -9.811916512552759E-11
2.5957446808510633E-5     -9.806581704341995E-11
2.638297872340425E-5      -9.801160904299271E-11
2.6808510638297866E-5     -9.795654635530648E-11
2.7234042553191484E-5     -9.790062898036125E-11
2.7659574468085102E-5     -9.784385691815702E-11
2.808510638297872E-5      -9.778623016869383E-11
2.8510638297872334E-5     -9.772774873197163E-11
2.8936170212765952E-5     -9.766841260799044E-11
2.936170212765957E-5      -9.76082247708647E-11
2.9787234042553185E-5     -9.754719055050135E-11
3.02127659574468E-5       -9.748530994690038E-11
3.063829787234042E-5      -9.74225829600618E-11
3.106382978723404E-5      -9.735900958998564E-11
3.148936170212765E-5      -9.729458983667183E-11
3.191489361702127E-5      -9.722932370012044E-11
3.2340425531914886E-5     -9.716321458321451E-11
3.2765957446808504E-5     -9.70962680685984E-11
3.319148936170212E-5      -9.702848415627205E-11
3.361702127659574E-5      -9.69598628462355E-11
3.404255319148936E-5      -9.689040413848876E-11
3.4468085106382976E-5     -9.68201080330318E-11
3.4893617021276594E-5     -9.674897452986465E-11
3.531914893617021E-5      -9.667700739835569E-11
3.574468085106383E-5      -9.660421249781149E-11
3.617021276595744E-5      -9.653058982823202E-11
3.659574468085106E-5      -9.645613938961732E-11
3.702127659574468E-5      -9.63808611819674E-11
3.744680851063829E-5      -9.630475520528219E-11
3.7872340425531907E-5     -9.622782145956176E-11
3.8297872340425525E-5     -9.615006405610325E-11
3.8723404255319136E-5     -9.60714891285133E-11
3.914893617021275E-5      -9.599209667679189E-11
3.957446808510637E-5      -9.591188670093907E-11
3.999999999999998E-5      -9.583085920095482E-11
4.04255319148936E-5       -9.574901417683914E-11
4.085106382978722E-5      -9.566635162859201E-11
4.127659574468084E-5      -9.558287599388264E-11
4.1702127659574455E-5     -9.549859367356622E-11
4.2127659574468066E-5     -9.541350466764273E-11
4.255319148936169E-5      -9.532760897611219E-11
4.29787234042553E-5       -9.52409065989746E-11
4.340425531914893E-5      -9.515339753622993E-11
4.382978723404254E-5      -9.506508178787822E-11
4.4255319148936156E-5     -9.497596410527445E-11
4.4680851063829774E-5     -9.488605114904022E-11
4.5106382978723385E-5     -9.479534291917552E-11
4.5531914893616997E-5     -9.470383941568037E-11
4.5957446808510615E-5     -9.461154063855476E-11
4.638297872340423E-5      -9.451844658779867E-11
4.680851063829785E-5      -9.442455726341215E-11
4.7234042553191475E-5     -9.43298777192235E-11
4.765957446808508E-5      -9.423441486845368E-11
4.8085106382978704E-5     -9.413816871110265E-11
4.851063829787232E-5      -9.404113924717043E-11
4.893617021276594E-5      -9.394332647665707E-11
4.936170212765956E-5      -9.384473039956245E-11
4.9787234042553176E-5     -9.374535101588669E-11
5.02127659574468E-5       -9.36451936717658E-11
5.0638297872340406E-5     -9.354426552625331E-11
5.1063829787234024E-5     -9.344256657934916E-11
5.148936170212764E-5      -9.334009683105337E-11
5.191489361702126E-5      -9.3236856281366E-11
5.234042553191487E-5      -9.313284493028695E-11
5.276595744680849E-5      -9.30280627778163E-11
5.319148936170211E-5      -9.292251545307051E-11
5.3617021276595725E-5     -9.281621035455649E-11
5.404255319148934E-5      -9.270914748227425E-11
5.446808510638296E-5      -9.260132683622381E-11
5.489361702127658E-5      -9.249274841640518E-11
5.53191489361702E-5       -9.238341222281831E-11
5.5744680851063815E-5     -9.227331825546325E-11
5.617021276595743E-5      -9.216247241780836E-11
5.6595744680851044E-5     -9.20508823417859E-11
5.7021276595744655E-5     -9.193854802739583E-11
5.744680851063827E-5      -9.18254694746382E-11
5.7872340425531884E-5     -9.171164668351301E-11
5.82978723404255E-5       -9.159707965402019E-11
5.8723404255319114E-5     -9.148176838615981E-11
5.914893617021274E-5      -9.136571904972902E-11
5.9574468085106356E-5     -9.124893950437054E-11
5.999999999999997E-5      -9.11314297500844E-11
6.042553191489359E-5      -9.101318978687059E-11
6.085106382978722E-5      -9.089421961472917E-11
6.127659574468083E-5      -9.077451923366001E-11
6.170212765957445E-5      -9.06540886436632E-11
6.212765957446806E-5      -9.053293427337047E-11
6.255319148936169E-5      -9.041106420470603E-11
6.297872340425529E-5      -9.02884784376699E-11
6.340425531914891E-5      -9.016517697226206E-11
6.382978723404252E-5      -9.004115980848257E-11
6.425531914893613E-5      -8.991642694633133E-11
6.468085106382975E-5      -8.979097838580843E-11
6.510638297872337E-5      -8.966482080734461E-11
6.553191489361698E-5      -8.953796250998167E-11
6.59574468085106E-5       -8.941040349371964E-11
6.638297872340422E-5      -8.92821437585585E-11
6.680851063829784E-5      -8.915318330449826E-11
6.723404255319147E-5      -8.902352213153889E-11
6.765957446808508E-5      -8.889316023968043E-11
6.80851063829787E-5       -8.876210455453236E-11
6.851063829787231E-5      -8.863036358732869E-11
6.893617021276593E-5      -8.849793733806942E-11
6.936170212765955E-5      -8.836482580675453E-11
6.978723404255316E-5      -8.823102899338411E-11
7.021276595744679E-5      -8.809654689795803E-11
7.06382978723404E-5       -8.796137952047639E-11
7.106382978723402E-5      -8.7825534025468E-11
7.148936170212763E-5      -8.768901913166144E-11
7.191489361702124E-5      -8.755183483905669E-11
7.234042553191486E-5      -8.741398114765377E-11
7.276595744680848E-5      -8.727545805745272E-11
7.31914893617021E-5       -8.713626556845344E-11
7.361702127659572E-5      -8.699640368065602E-11
7.404255319148934E-5      -8.685587979158786E-11
7.446808510638294E-5      -8.671470282297452E-11
7.489361702127655E-5      -8.657287277481593E-11
7.531914893617019E-5      -8.643038964711213E-11
7.574468085106379E-5      -8.628725343986317E-11
7.617021276595741E-5      -8.614346415306894E-11
7.659574468085102E-5      -8.599902178672953E-11
7.702127659574463E-5      -8.585393396575205E-11
7.744680851063826E-5      -8.57082098105578E-11
7.787234042553187E-5      -8.556184932114673E-11
7.82978723404255E-5       -8.541485249751887E-11
7.87234042553191E-5       -8.526721933967423E-11
7.914893617021272E-5      -8.511894984761277E-11
7.957446808510634E-5      -8.497004402133453E-11
7.999999999999997E-5      -8.482050970778487E-11
8.042553191489356E-5      -8.467035622195668E-11
8.085106382978717E-5      -8.451958356384997E-11
8.12765957446808E-5       -8.436819173346478E-11
8.170212765957441E-5      -8.421618073080108E-11
8.212765957446802E-5      -8.406355055585884E-11
8.255319148936163E-5      -8.391030120863812E-11
8.297872340425526E-5      -8.375644075303375E-11
8.340425531914888E-5      -8.360197869465547E-11
8.38297872340425E-5       -8.344691503350322E-11
8.425531914893612E-5      -8.329124976957704E-11
8.468085106382974E-5      -8.313498290287699E-11
8.510638297872335E-5      -8.297811443340297E-11
8.553191489361698E-5      -8.282064436115503E-11
8.59574468085106E-5       -8.266258096212333E-11
8.638297872340422E-5      -8.25039339287373E-11
8.680851063829783E-5      -8.234470326099686E-11
8.723404255319144E-5      -8.21848889589021E-11
8.765957446808508E-5      -8.202449102245301E-11
8.808510638297869E-5      -8.18635094516495E-11
8.85106382978723E-5       -8.170194424649168E-11
8.893617021276592E-5      -8.153980389042718E-11
8.936170212765952E-5      -8.137709825905733E-11
8.978723404255313E-5      -8.12138273523821E-11
9.021276595744674E-5      -8.104999117040146E-11
9.063829787234035E-5      -8.088558971311549E-11
9.106382978723398E-5      -8.072062298052412E-11
9.148936170212759E-5      -8.055509097262739E-11
9.191489361702122E-5      -8.038900237589541E-11
9.234042553191483E-5      -8.022236724559265E-11
9.276595744680844E-5      -8.005518558171913E-11
9.319148936170208E-5      -7.988745738427481E-11
9.361702127659569E-5      -7.971918265325977E-11
9.40425531914893E-5       -7.955036138867391E-11
9.446808510638292E-5      -7.938099359051729E-11
9.489361702127655E-5      -7.921108814403502E-11
9.531914893617015E-5      -7.904065528077913E-11
9.574468085106377E-5      -7.886969500074968E-11
9.617021276595738E-5      -7.869820730394664E-11
9.6595744680851E-5        -7.852619219037003E-11
9.702127659574462E-5      -7.835364966001982E-11
9.744680851063823E-5      -7.818057971289602E-11
9.787234042553185E-5      -7.800699142894703E-11
9.829787234042548E-5      -7.783289521276249E-11
9.872340425531908E-5      -7.765829106434241E-11
9.914893617021271E-5      -7.74831789836868E-11
9.957446808510633E-5      -7.730755897079567E-11
9.999999999999995E-5      -7.713143102566897E-11
1.0042553191489358E-4     -7.695479514830675E-11
1.008510638297872E-4      -7.677766060945456E-11
1.012765957446808E-4      -7.660003798360774E-11
1.0170212765957441E-4     -7.642192727076632E-11
1.0212765957446803E-4     -7.624332847093024E-11
1.0255319148936166E-4     -7.606424158409957E-11
1.0297872340425527E-4     -7.588466661027423E-11
1.0340425531914888E-4     -7.57046035494543E-11
1.038297872340425E-4      -7.552406185943131E-11
1.0425531914893612E-4     -7.534305228158761E-11
1.0468085106382971E-4     -7.516157481592318E-11
1.0510638297872335E-4     -7.497962946243806E-11
1.0553191489361695E-4     -7.479721622113225E-11
1.0595744680851058E-4     -7.46143350920057E-11
1.0638297872340419E-4     -7.443098607505846E-11
1.068085106382978E-4      -7.424717881152262E-11
1.0723404255319141E-4     -7.406292420675597E-11
1.0765957446808503E-4     -7.387822226075857E-11
1.0808510638297865E-4     -7.369307297353039E-11
1.0851063829787227E-4     -7.350747634507142E-11
1.0893617021276588E-4     -7.332143237538166E-11
1.093617021276595E-4      -7.313494106446114E-11
1.0978723404255313E-4     -7.294801223351502E-11
1.1021276595744674E-4     -7.276065694906678E-11
1.1063829787234035E-4     -7.257287521111642E-11
1.1106382978723399E-4     -7.238466701966394E-11
1.114893617021276E-4      -7.219603237470938E-11
1.1191489361702123E-4     -7.200697127625266E-11
1.1234042553191484E-4     -7.181748372429385E-11
1.1276595744680846E-4     -7.162757971667408E-11
1.1319148936170207E-4     -7.143727047836945E-11
1.1361702127659569E-4     -7.124655600937995E-11
1.140425531914893E-4      -7.10554363097056E-11
1.1446808510638292E-4     -7.086391137934639E-11
1.1489361702127652E-4     -7.06719812183023E-11
1.1531914893617014E-4     -7.047964582657337E-11
1.1574468085106377E-4     -7.02869153754226E-11
1.1617021276595738E-4     -7.009380124565833E-11
1.1659574468085099E-4     -6.990030343728059E-11
1.1702127659574462E-4     -6.970642195028934E-11
1.1744680851063824E-4     -6.951215678468465E-11
1.1787234042553185E-4     -6.931750794046644E-11
1.1829787234042546E-4     -6.912247541763474E-11
1.1872340425531909E-4     -6.892706955777706E-11
1.191489361702127E-4      -6.873130189500169E-11
1.1957446808510631E-4     -6.853517242930861E-11
1.1999999999999994E-4     -6.833868116069784E-11
1.2042553191489355E-4     -6.814182808916938E-11
1.2085106382978716E-4     -6.79446132147232E-11
1.2127659574468078E-4     -6.774703653735934E-11
1.2170212765957441E-4     -6.754910856600365E-11
1.2212765957446802E-4     -6.735084098561558E-11
1.2255319148936163E-4     -6.71522337961951E-11
1.2297872340425524E-4     -6.695328699774223E-11
1.2340425531914888E-4     -6.675400059025698E-11
1.238297872340425E-4      -6.655437457373931E-11
1.242553191489361E-4      -6.635440894818926E-11
1.246808510638297E-4      -6.615411438698967E-11
1.2510638297872332E-4     -6.595350272358287E-11
1.2553191489361694E-4     -6.575257395796883E-11
1.2595744680851055E-4     -6.555132809014759E-11
1.2638297872340416E-4     -6.534976512011912E-11
1.268085106382978E-4      -6.514788504788343E-11
1.272340425531914E-4      -6.494568787344054E-11
1.2765957446808505E-4     -6.47431844318489E-11
1.2808510638297863E-4     -6.454038670274213E-11
1.2851063829787224E-4     -6.433729468612018E-11
1.2893617021276588E-4     -6.413390838198307E-11
1.293617021276595E-4      -6.393022779033084E-11
1.297872340425531E-4      -6.372625291116341E-11
1.302127659574467E-4      -6.352198374448084E-11
1.3063829787234032E-4     -6.331743128433126E-11
1.3106382978723396E-4     -6.31126076543208E-11
1.3148936170212755E-4     -6.290751285444948E-11
1.3191489361702118E-4     -6.270214688471727E-11
1.3234042553191482E-4     -6.249650974512423E-11
1.3276595744680843E-4     -6.229060143567027E-11
1.3319148936170205E-4     -6.208442195635547E-11
1.3361702127659568E-4     -6.187798245762222E-11
1.340425531914893E-4      -6.167129520490053E-11
1.344680851063829E-4      -6.146436019819034E-11
1.3489361702127652E-4     -6.125717743749167E-11
1.3531914893617016E-4     -6.104974692280456E-11
1.3574468085106377E-4     -6.084206865412895E-11
1.3617021276595738E-4     -6.063414263146487E-11
1.36595744680851E-4       -6.042598015914014E-11
1.370212765957446E-4      -6.021759364232677E-11
1.374468085106382E-4      -6.000898308102479E-11
1.3787234042553182E-4     -5.980014847523418E-11
1.3829787234042546E-4     -5.959108982495498E-11
1.3872340425531907E-4     -5.938180713018713E-11
1.3914893617021268E-4     -5.917230039093069E-11
1.395744680851063E-4      -5.896258106297196E-11
1.399999999999999E-4      -5.875266168920784E-11
1.4042553191489352E-4     -5.854254226963829E-11
1.4085106382978716E-4     -5.833222280426333E-11
1.4127659574468077E-4     -5.812170329308296E-11
1.4170212765957438E-4     -5.7910983736097166E-11
1.42127659574468E-4       -5.770006413330597E-11
1.4255319148936163E-4     -5.748895608960663E-11
1.429787234042552E-4      -5.727767228366428E-11
1.4340425531914882E-4     -5.706621271547889E-11
1.4382978723404246E-4     -5.6854577385050496E-11
1.4425531914893607E-4     -5.66427662923791E-11
1.446808510638297E-4      -5.643077943746466E-11
1.4510638297872332E-4     -5.621861682030721E-11
1.4553191489361696E-4     -5.6006290192642067E-11
1.4595744680851054E-4     -5.5793812367005406E-11
1.4638297872340416E-4     -5.55811833433972E-11
1.468085106382978E-4      -5.536840312181747E-11
1.472340425531914E-4      -5.515547170226623E-11
1.4765957446808502E-4     -5.4942389084743435E-11
1.4808510638297863E-4     -5.472915526924912E-11
1.4851063829787224E-4     -5.451578215215538E-11
1.4893617021276588E-4     -5.4302282678028925E-11
1.493617021276595E-4      -5.4088656846869764E-11
1.497872340425531E-4      -5.387490465867788E-11
1.5021276595744674E-4     -5.36610261134533E-11
1.5063829787234035E-4     -5.3447021211195986E-11
1.5106382978723396E-4     -5.3232889951905975E-11
1.5148936170212757E-4     -5.301864437445988E-11
1.519148936170212E-4      -5.28042975536684E-11
1.523404255319148E-4      -5.258984948953155E-11
1.5276595744680843E-4     -5.2375300182049327E-11
1.5319148936170204E-4     -5.216064963122174E-11
1.5361702127659563E-4     -5.194589783704876E-11
1.5404255319148927E-4     -5.173104479953042E-11
1.5446808510638288E-4     -5.1516102697981346E-11
1.548936170212765E-4      -5.1301084735721855E-11
1.553191489361701E-4      -5.108599091275193E-11
1.557446808510637E-4      -5.0870821229071576E-11
1.5617021276595732E-4     -5.065557568468083E-11
1.5659574468085093E-4     -5.044025427957963E-11
1.5702127659574457E-4     -5.0224857013768015E-11
1.574468085106382E-4      -5.0009396204994766E-11
1.578723404255318E-4      -4.9793885183406224E-11
1.5829787234042543E-4     -4.9578323949002396E-11
1.5872340425531904E-4     -4.936271250178326E-11
1.5914893617021266E-4     -4.914705084174885E-11
1.595744680851063E-4      -4.893133896889913E-11
1.599999999999999E-4      -4.871557688323412E-11
1.6042553191489354E-4     -4.8499777038993424E-11
1.6085106382978715E-4     -4.8283952891513926E-11
1.6127659574468077E-4     -4.806810444079563E-11
1.6170212765957438E-4     -4.7852231686838536E-11
1.62127659574468E-4       -4.763633462964265E-11
1.6255319148936163E-4     -4.7420413269207955E-11
1.6297872340425524E-4     -4.720446760553447E-11
1.6340425531914885E-4     -4.698851022746735E-11
1.6382978723404246E-4     -4.67725547139455E-11
1.642553191489361E-4      -4.655660106496891E-11
1.646808510638297E-4      -4.634064928053758E-11
1.6510638297872332E-4     -4.612469936065153E-11
1.6553191489361693E-4     -4.590875130531073E-11
1.6595744680851054E-4     -4.56928051145152E-11
1.6638297872340415E-4     -4.5476873509886155E-11
1.668085106382978E-4      -4.5260970192421344E-11
1.6723404255319138E-4     -4.504509516212073E-11
1.6765957446808501E-4     -4.482924841898434E-11
1.6808510638297863E-4     -4.4613429963012197E-11
1.6851063829787224E-4     -4.439763979420424E-11
1.6893617021276588E-4     -4.418187791256051E-11
1.693617021276595E-4      -4.396615717070195E-11
1.697872340425531E-4      -4.3750491390186184E-11
1.702127659574467E-4      -4.3534880571013204E-11
1.7063829787234032E-4     -4.331932471318301E-11
1.7106382978723396E-4     -4.310382381669562E-11
1.7148936170212757E-4     -4.2888377881550994E-11
1.7191489361702118E-4     -4.267298690774917E-11
1.7234042553191482E-4     -4.245766387718654E-11
1.7276595744680843E-4     -4.224242273052395E-11
1.7319148936170204E-4     -4.20272634677614E-11
1.7361702127659565E-4     -4.181218608889892E-11
1.7404255319148926E-4     -4.159719059393649E-11
1.744680851063829E-4      -4.138227698287411E-11
1.7489361702127651E-4     -4.116744525571178E-11
1.7531914893617015E-4     -4.095270852194688E-11
1.7574468085106374E-4     -4.073808083992879E-11
1.7617021276595735E-4     -4.0523562209657477E-11
1.7659574468085099E-4     -4.0309152631132974E-11
1.770212765957446E-4      -4.009485210435528E-11
1.774468085106382E-4      -3.988066062932436E-11
1.7787234042553182E-4     -3.966657820604025E-11
1.7829787234042543E-4     -3.94526180699747E-11
1.7872340425531904E-4     -3.923879439579163E-11
1.7914893617021265E-4     -3.902510718349103E-11
1.795744680851063E-4      -3.881155643307292E-11
1.7999999999999993E-4     -3.8598142144537296E-11
1.8042553191489351E-4     -3.838486431788414E-11
1.8085106382978715E-4     -3.8171722953113466E-11
1.8127659574468076E-4     -3.7958731410091696E-11
1.8170212765957437E-4     -3.7745903978462995E-11
1.8212765957446799E-4     -3.753324065822735E-11
1.825531914893616E-4      -3.732074144938476E-11
1.829787234042552E-4      -3.710840635193525E-11
1.8340425531914882E-4     -3.6896235365878775E-11
1.8382978723404243E-4     -3.668422849121538E-11
1.8425531914893607E-4     -3.6472399210671787E-11
1.8468085106382968E-4     -3.626076192757729E-11
1.851063829787233E-4      -3.6049316641931886E-11
1.8553191489361693E-4     -3.58380633537356E-11
1.8595744680851054E-4     -3.5627002062988406E-11
1.8638297872340418E-4     -3.54161327696903E-11
1.868085106382978E-4      -3.520545547384131E-11
1.8723404255319143E-4     -3.4994983779538216E-11
1.8765957446808504E-4     -3.4784732202538934E-11
1.8808510638297862E-4     -3.4574700742843464E-11
1.8851063829787226E-4     -3.4364889400451825E-11
1.8893617021276585E-4     -3.4155298175364004E-11
1.8936170212765949E-4     -3.394592706757999E-11
1.897872340425531E-4      -3.37367760770998E-11
1.9021276595744673E-4     -3.352785892794274E-11
1.9063829787234032E-4     -3.331919024707733E-11
1.9106382978723393E-4     -3.3110770034503566E-11
1.9148936170212757E-4     -3.2902598290221453E-11
1.9191489361702115E-4     -3.2694675014231E-11
1.923404255319148E-4      -3.248700020653218E-11
1.927659574468084E-4      -3.2279573867125025E-11
1.93191489361702E-4       -3.207240983854626E-11
1.9361702127659562E-4     -3.186552285779469E-11
1.9404255319148926E-4     -3.1658912924870296E-11
1.9446808510638287E-4     -3.14525800397731E-11
1.9489361702127649E-4     -3.124652420250309E-11
1.953191489361701E-4      -3.104074541306026E-11
1.957446808510637E-4      -3.083524367144462E-11
1.9617021276595732E-4     -3.0630032937346305E-11
1.9659574468085096E-4     -3.0425128056652046E-11
1.9702127659574454E-4     -3.022052902936185E-11
1.9744680851063818E-4     -3.0016235855475697E-11
1.978723404255318E-4      -2.981224853499362E-11
1.9829787234042543E-4     -2.9608567067915575E-11
1.9872340425531904E-4     -2.9405191454241595E-11
1.9914893617021268E-4     -2.92021357694919E-11
1.9957446808510626E-4     -2.899941496733661E-11
1.9999999999999987E-4     -2.8797029047775714E-11
2.004255319148935E-4      -2.8594978010809214E-11
2.0085106382978715E-4     -2.8393261856437122E-11
2.0127659574468076E-4     -2.819188058465942E-11
2.0170212765957437E-4     -2.799083419547612E-11
2.02127659574468E-4       -2.779013687895439E-11
2.0255319148936162E-4     -2.758980369548131E-11
2.029787234042552E-4      -2.738983464505687E-11
2.0340425531914887E-4     -2.719022972768108E-11
2.0382978723404246E-4     -2.6990988943353946E-11
2.042553191489361E-4      -2.6792112292075448E-11
2.046808510638297E-4      -2.6593599773845605E-11
2.0510638297872332E-4     -2.639546569203522E-11
2.0553191489361693E-4     -2.6197725212720305E-11
2.0595744680851054E-4     -2.6000378335900856E-11
2.0638297872340415E-4     -2.580342506157688E-11
2.0680851063829776E-4     -2.5606865389748378E-11
2.0723404255319137E-4     -2.541069932041534E-11
2.0765957446808498E-4     -2.5214926853577774E-11
2.080851063829786E-4      -2.501956240470643E-11
2.085106382978722E-4      -2.4824621244576986E-11
2.0893617021276582E-4     -2.4630103373189433E-11
2.0936170212765946E-4     -2.4436008790543773E-11
2.097872340425531E-4      -2.4242337496640025E-11
2.1021276595744668E-4     -2.4049089491478157E-11
2.1063829787234032E-4     -2.3856264775058192E-11
2.1106382978723393E-4     -2.3663877873786593E-11
2.1148936170212754E-4     -2.3471944162189088E-11
2.1191489361702115E-4     -2.328046364026567E-11
2.1234042553191476E-4     -2.3089436308016335E-11
2.1276595744680837E-4     -2.2898862165441107E-11
2.1319148936170198E-4     -2.2708741212539957E-11
2.136170212765956E-4      -2.2519073449312897E-11
2.140425531914892E-4      -2.232987351197757E-11
2.1446808510638282E-4     -2.2141156877900247E-11
2.1489361702127643E-4     -2.1952923547080943E-11
2.1531914893617004E-4     -2.1765173519519642E-11
2.1574468085106365E-4     -2.1577906795216364E-11
2.1617021276595726E-4     -2.139112337417109E-11
2.1659574468085087E-4     -2.120482325638383E-11
2.170212765957445E-4      -2.1019021186798853E-11
2.1744680851063815E-4     -2.083373274475466E-11
2.1787234042553176E-4     -2.064895793025125E-11
2.1829787234042537E-4     -2.0464696743288623E-11
2.1872340425531898E-4     -2.028094918386679E-11
2.1914893617021265E-4     -2.0097715251985736E-11
2.1957446808510626E-4     -1.991499494764547E-11
2.199999999999999E-4      -1.9732803123472596E-11
2.2042553191489348E-4     -1.9551155459951855E-11
2.208510638297871E-4      -1.9370051957083263E-11
2.2127659574468073E-4     -1.918949261486681E-11
2.2170212765957432E-4     -1.9009477433302498E-11
2.2212765957446796E-4     -1.8830006412390324E-11
2.2255319148936157E-4     -1.8651079552130293E-11
2.229787234042552E-4      -1.847271181182771E-11
2.234042553191488E-4      -1.8294918972331308E-11
2.238297872340424E-4      -1.811770103364109E-11
2.2425531914893604E-4     -1.7941057995757053E-11
2.2468085106382965E-4     -1.77649898586792E-11
2.2510638297872326E-4     -1.758949662240753E-11
2.2553191489361687E-4     -1.741457828694204E-11
2.2595744680851048E-4     -1.7240249917305024E-11
2.2638297872340412E-4     -1.7066527393971467E-11
2.268085106382977E-4      -1.689341071694137E-11
2.2723404255319137E-4     -1.6720899886214735E-11
2.2765957446808498E-4     -1.6548994901791565E-11
2.280851063829786E-4      -1.6377695763671853E-11
2.2851063829787223E-4     -1.6207002471855603E-11
2.2893617021276587E-4     -1.603693019616261E-11
2.2936170212765948E-4     -1.586749491600314E-11
2.2978723404255307E-4     -1.569869663137719E-11
2.302127659574467E-4      -1.5530535342284768E-11
2.3063829787234032E-4     -1.5363011048725868E-11
2.3106382978723393E-4     -1.519612375070049E-11
2.3148936170212754E-4     -1.5029873448208635E-11
2.3191489361702118E-4     -1.4864275414991515E-11
2.3234042553191476E-4     -1.4699345728751947E-11
2.3276595744680837E-4     -1.4535084389489927E-11
2.3319148936170198E-4     -1.4371491397205459E-11
2.336170212765956E-4      -1.4208566751898548E-11
2.3404255319148923E-4     -1.4046310453569181E-11
2.3446808510638284E-4     -1.3884722502217368E-11
2.3489361702127648E-4     -1.372381827467439E-11
2.3531914893617007E-4     -1.3563613946342813E-11
2.3574468085106368E-4     -1.340410951722264E-11
2.3617021276595732E-4     -1.3245304987313869E-11
2.3659574468085093E-4     -1.3087200356616503E-11
2.3702127659574454E-4     -1.2929795625130533E-11
2.3744680851063818E-4     -1.277309079285597E-11
2.378723404255318E-4      -1.2617101338928798E-11
2.382978723404254E-4      -1.2461843535910698E-11
2.3872340425531898E-4     -1.2307317383801677E-11
2.391489361702126E-4      -1.2153522882601729E-11
2.3957446808510623E-4     -1.2000460032310858E-11
2.3999999999999982E-4     -1.184812883292906E-11
2.4042553191489345E-4     -1.169652928445634E-11
2.4085106382978707E-4     -1.1545676967595361E-11
2.412765957446807E-4      -1.1395588251580757E-11
2.417021276595743E-4      -1.1246263136412527E-11
2.4212765957446793E-4     -1.1097701622090673E-11
2.4255319148936154E-4     -1.0949903708615197E-11
2.4297872340425515E-4     -1.0802869395986091E-11
2.434042553191488E-4      -1.0656598684203364E-11
2.4382978723404243E-4     -1.0511107254847554E-11
2.4425531914893604E-4     -1.0366411573396658E-11
2.4468085106382965E-4     -1.022251163985068E-11
2.4510638297872326E-4     -1.0079407454209617E-11
2.4553191489361687E-4     -9.93709901647347E-12
2.4595744680851054E-4     -9.795586326642236E-12
2.4638297872340415E-4     -9.65486938471592E-12
2.4680851063829776E-4     -9.514963972515096E-12
2.4723404255319137E-4     -9.375886651390744E-12
2.47659574468085E-4       -9.237637421342859E-12
2.480851063829786E-4      -9.100216282371442E-12
2.4851063829787226E-4     -8.9636232344765E-12
2.4893617021276587E-4     -8.827858277658023E-12
2.493617021276595E-4      -8.692921411916017E-12
2.497872340425531E-4      -8.558828518726107E-12
2.502127659574467E-4      -8.425596255003878E-12
2.5063829787234026E-4     -8.293224620749336E-12
2.510638297872339E-4      -8.16171361596248E-12
2.5148936170212754E-4     -8.031063240643313E-12
2.5191489361702115E-4     -7.901273494791825E-12
2.5234042553191476E-4     -7.772344378408026E-12
2.5276595744680837E-4     -7.644291872092645E-12
2.53191489361702E-4       -7.517132728082342E-12
2.536170212765956E-4      -7.39086694637711E-12
2.540425531914892E-4      -7.265494526976956E-12
2.5446808510638287E-4     -7.141015469881878E-12
2.548936170212765E-4      -7.017429775091872E-12
2.553191489361701E-4      -6.894737442606943E-12
2.557446808510637E-4      -6.772954551680472E-12