% Model:              PLacek_MembTVNJ_ArticleDims_Rh20um_hg5um_To2MHz_PHedit.mph
% Version:            COMSOL 6.3.0.420
% Date:               Aug 12 2025, 09:51
% Dimension:          1
% Nodes:              708
% Expressions:        1
% Description:        Line graph
% Arc length (m)          real(xi)
0                         1.4770861890364999E-10
4.2780521530280657E-7     1.4770765749343333E-10
8.556104306056131E-7      1.477047675699226E-10
1.2834156459084197E-6     1.4769994913311782E-10
1.7112208612112263E-6     1.4769320218301902E-10
2.139026076514033E-6      1.4768452671962618E-10
2.5668312918168394E-6     1.476739227429393E-10
2.994636507119646E-6      1.4766139025295837E-10
3.4224417224224526E-6     1.4764692428502952E-10
3.85024693772526E-6       1.4763052638457022E-10
4.278052153028066E-6      1.4761219655158042E-10
4.705857368330872E-6      1.4759193478606014E-10
5.133662583633679E-6      1.4756974108800947E-10
5.561467798936486E-6      1.4754561545742827E-10
5.989273014239292E-6      1.4751955789431663E-10
6.410088963256641E-6      1.4749204163774644E-10
6.830904912273991E-6      1.4746265110990329E-10
7.25172086129134E-6       1.4743138631078707E-10
7.672536810308689E-6      1.4739824724039782E-10
8.09335275932604E-6       1.4736323389873563E-10
8.514168708343389E-6      1.4732634628580036E-10
8.934984657360738E-6      1.4728758440159207E-10
9.335662524497946E-6      1.4724893040197033E-10
9.736340391635153E-6      1.4720857007084465E-10
1.0137018258772359E-5     1.47166503408215E-10
1.0537696125909567E-5     1.471227304140813E-10
1.0938373993046773E-5     1.4707725108844375E-10
1.1339051860183981E-5     1.470300654313021E-10
1.1739729727321188E-5     1.4698117344265655E-10
1.2124875559851212E-5     1.469325640113248E-10
1.2510021392381236E-5     1.4688236826198409E-10
1.289516722491126E-5      1.4683058619463432E-10
1.3280313057441285E-5     1.4677721780927556E-10
1.366545888997131E-5      1.4672226310590784E-10
1.4050604722501333E-5     1.4666572208453106E-10
1.4435750555031359E-5     1.4660759474514528E-10
1.481289903671961E-5      1.4654912994025425E-10
1.519004751840786E-5      1.4648912949098343E-10
1.5567196000096113E-5     1.4642759339733283E-10
1.5944344481784364E-5     1.4636452165930244E-10
1.6321492963472616E-5     1.462999142768923E-10
1.6698641445160864E-5     1.462337712501023E-10
1.7075789926849116E-5     1.4616609257893259E-10
1.7433901167700504E-5     1.4610040390339305E-10
1.779201240855189E-5      1.4603331207771745E-10
1.8150123649403275E-5     1.4596481710190574E-10
1.850823489025466E-5      1.4589491897595797E-10
1.886634613110605E-5      1.4582361769987414E-10
1.9224457371957433E-5     1.457509132736542E-10
1.958256861280882E-5      1.4567680569729818E-10
1.9940481295372828E-5     1.4560132446394558E-10
2.0298393977936837E-5     1.4552442070483569E-10
2.0656306660500846E-5     1.454460944199684E-10
2.1014219343064855E-5     1.4536634560934378E-10
2.137213202562886E-5      1.452851742729619E-10
2.173004470819287E-5      1.4520258041082258E-10
2.208795739075688E-5      1.4511856402292597E-10
2.245944263531065E-5      1.450298440995331E-10
2.283092787986442E-5      1.4493957690819598E-10
2.3202413124418192E-5     1.4484776244891468E-10
2.3573898368971962E-5     1.4475440072168918E-10
2.3945383613525733E-5     1.446594917265195E-10
2.4316868858079504E-5     1.4456303546340557E-10
2.4688354102633274E-5     1.4446503193234748E-10
2.5091993018119224E-5     1.4435678537678305E-10
2.549563193360517E-5      1.442467032545713E-10
2.5899270849091118E-5     1.4413478556571225E-10
2.6302909764577068E-5     1.4402103231020595E-10
2.6706548680063018E-5     1.4390544348805237E-10
2.7110187595548965E-5     1.4378801909925147E-10
2.7513826511034915E-5     1.436687591438033E-10
2.793795334649159E-5      1.4354146297222788E-10
2.8362080181948263E-5     1.434121381146515E-10
2.8786207017404936E-5     1.432807845710742E-10
2.9210333852861612E-5     1.43147402341496E-10
2.9634460688318288E-5     1.430119914259169E-10
3.005858752377496E-5      1.428745518243368E-10
3.0482714359231637E-5     1.4273508353675585E-10
3.0910519574534446E-5     1.4259235006908235E-10
3.133832478983725E-5      1.42447559463178E-10
3.176613000514005E-5      1.4230071171904284E-10
3.219393522044286E-5      1.4215180683667684E-10
3.262174043574567E-5      1.420008448160801E-10
3.304954565104847E-5      1.418478256572525E-10
3.347735086635128E-5      1.4169274936019407E-10
3.3905156081654086E-5     1.4153562002766605E-10
3.4332961296956895E-5     1.413764482409157E-10
3.47607665122597E-5       1.4121523399994306E-10
3.518857172756251E-5      1.410519773047482E-10
3.5616376942865314E-5     1.4088667815533102E-10
3.604418215816812E-5      1.4071933655169156E-10
3.647198737347093E-5      1.405499524938298E-10
3.689979258877374E-5      1.403785339924374E-10
3.732759780407654E-5      1.40205094531155E-10
3.775540301937935E-5      1.4002963410998265E-10
3.818320823468215E-5      1.3985215272892028E-10
3.861101344998497E-5      1.3967265038796799E-10
3.903881866528777E-5      1.3949112708712563E-10
3.946662388059058E-5      1.393075828263933E-10
3.989442909589339E-5      1.3912202894578375E-10
4.032223431119619E-5      1.3893448151965386E-10
4.075003952649899E-5      1.3874494054800363E-10
4.117784474180181E-5      1.3855340603083312E-10
4.160564995710461E-5      1.3835987796814235E-10
4.203345517240741E-5      1.3816435635993118E-10
4.246126038771022E-5      1.3796684120619973E-10
4.288906560301303E-5      1.3776734678688992E-10
4.331687081831583E-5      1.3756589155394565E-10
4.374467603361863E-5      1.373624755073669E-10
4.417248124892144E-5      1.3715709864715366E-10
4.460028646422425E-5      1.3694976097330604E-10
4.502809167952706E-5      1.367404624858239E-10
4.545589689482986E-5      1.3652920318470734E-10
4.588370211013267E-5      1.363159999879249E-10
4.631150732543547E-5      1.3610087352803284E-10
4.673931254073827E-5      1.358838238050312E-10
4.716711775604109E-5      1.3566485081891997E-10
4.759492297134389E-5      1.354439545696992E-10
4.80227281866467E-5       1.3522113505736882E-10
4.845053340194951E-5      1.3499639228192883E-10
4.8878338617252316E-5     1.3476974555491938E-10
4.9306143832555124E-5     1.3454121751921779E-10
4.9733949047857926E-5     1.3431080817482403E-10
5.0161754263160735E-5     1.340785175217381E-10
5.0589559478463544E-5     1.3384434555996012E-10
5.1017364693766346E-5     1.3360829228948989E-10
5.1445169909069154E-5     1.3337035771032754E-10
5.187297512437196E-5      1.3313056332161233E-10
5.230078033967478E-5      1.3288893363150847E-10
5.272858555497758E-5      1.3264546864001595E-10
5.315639077028039E-5      1.3240016834713477E-10
5.35841959855832E-5       1.3215303275286502E-10
5.4012001200886006E-5     1.3190406185720659E-10
5.4439806416188815E-5     1.316532556601595E-10
5.4867611631491624E-5     1.3140063767540404E-10
5.529541684679443E-5      1.31146234145366E-10
5.5723222062097234E-5     1.308900450700454E-10
5.6151027277400036E-5     1.3063207044944226E-10
5.657883249270284E-5      1.3037231028355657E-10
5.7006637708005654E-5     1.3011076457238828E-10
5.7434442923308456E-5     1.2984743331593748E-10
5.786224813861127E-5      1.2958234189136828E-10
5.829005335391407E-5      1.293155181554265E-10
5.8717858569216875E-5     1.290469621081121E-10
5.914566378451969E-5      1.287766737494251E-10
5.957346899982249E-5      1.285046530793656E-10
6.00012742151253E-5       1.2823090009793344E-10
6.042907943042811E-5      1.2795541480512872E-10
6.085688464573092E-5      1.2767822430649495E-10
6.128468986103373E-5      1.273993579621287E-10
6.171249507633653E-5      1.271188157720299E-10
6.214030029163933E-5      1.2683659773619857E-10
6.256810550694215E-5      1.265527038546348E-10
6.299591072224495E-5      1.2626713412733844E-10
6.342371593754775E-5      1.2597988855430957E-10
6.385152115285055E-5      1.2569099584662718E-10
6.427932636815337E-5      1.254004867639926E-10
6.470713158345617E-5      1.251083613064059E-10
6.513493679875897E-5      1.2481461947386705E-10
6.556274201406177E-5      1.245192612663761E-10
6.599054722936459E-5      1.2422228668393294E-10
6.641835244466739E-5      1.239236957265377E-10
6.68461576599702E-5       1.2362351859760856E-10
6.727396287527301E-5      1.2332178735849907E-10
6.770176809057582E-5      1.2301850200920924E-10
6.812957330587863E-5      1.2271366254973906E-10
6.855737852118144E-5      1.2240726898008854E-10
6.898518373648426E-5      1.2209932130025766E-10
6.941298895178706E-5      1.2178981951024642E-10
6.984079416708987E-5      1.2147879520026302E-10
7.026859938239266E-5      1.2116628164005824E-10
7.069640459769546E-5      1.208522788296321E-10
7.112420981299828E-5      1.205367867689846E-10
7.15520150283011E-5       1.202198054581158E-10
7.197982024360388E-5      1.1990133489702555E-10
7.24076254589067E-5       1.19581375085714E-10
7.283543067420951E-5      1.192599589017438E-10
7.326323588951232E-5      1.1893712073388738E-10
7.369104110481512E-5      1.1861286058214466E-10
7.411884632011793E-5      1.1828717844651569E-10
7.454665153542074E-5      1.179600743270005E-10
7.497445675072354E-5      1.17631548223599E-10
7.540226196602635E-5      1.1730160013631127E-10
7.583006718132917E-5      1.1697026413556199E-10
7.625787239663197E-5      1.1663757564308066E-10
7.668567761193477E-5      1.1630353465886721E-10
7.711348282723757E-5      1.1596814118292173E-10
7.754128804254038E-5      1.1563139521524421E-10
7.796909325784319E-5      1.1529329675583457E-10
7.8396898473146E-5        1.1495384580469287E-10
7.88247036884488E-5       1.1461307753470016E-10
7.925250890375161E-5      1.1427102831744379E-10
7.968031411905441E-5      1.1392769815292377E-10
8.010811933435721E-5      1.1358308704114008E-10
8.053592454966002E-5      1.1323719498209276E-10
8.096372976496282E-5      1.1289002197578174E-10
8.139153498026563E-5      1.1254156802220708E-10
8.181934019556845E-5      1.1219186930989965E-10
8.224714541087125E-5      1.1184096307976981E-10
8.267495062617405E-5      1.1148884933181758E-10
8.310275584147686E-5      1.1113552806604296E-10
8.353056105677967E-5      1.1078099928244597E-10
8.395836627208249E-5      1.1042526298102653E-10
8.438617148738529E-5      1.1006831916178472E-10
8.48139767026881E-5       1.0971020494556966E-10
8.52417819179909E-5       1.0935095836330589E-10
8.566958713329371E-5      1.0899057941499334E-10
8.609739234859652E-5      1.0862906810063207E-10
8.652519756389932E-5      1.082664244202221E-10
8.695300277920214E-5      1.0790264837376337E-10
8.738080799450494E-5      1.0753773996125592E-10
8.780861320980776E-5      1.0717173715550528E-10
8.823641842511056E-5      1.0680467869618853E-10
8.866422364041336E-5      1.0643656458330562E-10
8.909202885571618E-5      1.0606739481685658E-10
8.951983407101899E-5      1.0569716939684142E-10
8.99476392863218E-5       1.0532588832326011E-10
9.037544450162461E-5      1.0495355159611267E-10
9.080324971692743E-5      1.0458019795943285E-10
9.123105493223023E-5      1.0420586677664696E-10
9.165886014753303E-5      1.0383055804775494E-10
9.208666536283583E-5      1.0345427177275681E-10
9.251447057813863E-5      1.0307700795165264E-10
9.294227579344145E-5      1.0269876658444232E-10
9.337008100874425E-5      1.0231954767112593E-10
9.379788622404705E-5      1.0193939062739169E-10
9.422569143934985E-5      1.0155833538722814E-10
9.465349665465267E-5      1.0117638195063528E-10
9.508130186995547E-5      1.007935303176131E-10
9.550910708525827E-5      1.0040978048816164E-10
9.593691230056108E-5      1.0002513246228084E-10
9.636471751586388E-5      9.963958623997074E-11
9.679252273116668E-5      9.925318184587093E-11
9.72203279464695E-5       9.886595976597341E-11
9.764813316177228E-5      9.847792000027817E-11
9.80759383770751E-5       9.808906254878523E-11
9.85037435923779E-5       9.769938741149462E-11
9.893154880768072E-5      9.730889458840626E-11
9.935935402298352E-5      9.691758407952021E-11
9.978715923828633E-5      9.652549655284478E-11
1.0021496445358912E-4     9.613267283184844E-11
1.0064276966889192E-4     9.573911291653124E-11
1.0107057488419474E-4     9.534481680689313E-11
1.0149838009949755E-4     9.494978450293417E-11
1.0192618531480036E-4     9.45540160046543E-11
1.0235399053010316E-4     9.415751131205356E-11
1.0278179574540597E-4     9.376031147624099E-11
1.0320960096070879E-4     9.336245768485571E-11
1.0363740617601158E-4     9.296394993789772E-11
1.0406521139131439E-4     9.256478823536702E-11
1.0449301660661721E-4     9.216497257726364E-11
1.0492082182192001E-4     9.17645029635875E-11
1.0534862703722283E-4     9.13633793943387E-11
1.0577643225252563E-4     9.096164331719549E-11
1.0620423746782844E-4     9.055933621948816E-11
1.0663204268313123E-4     9.01564581012167E-11
1.0705984789843405E-4     8.975300896238113E-11
1.0748765311373686E-4     8.934898880298146E-11
1.0791545832903966E-4     8.894439762301763E-11
1.0834326354434247E-4     8.853923542248971E-11
1.0877106875964528E-4     8.813354398716278E-11
1.0919887397494808E-4     8.77273650340789E-11
1.0962667919025089E-4     8.732069856323805E-11
1.100544844055537E-4      8.691354457464027E-11
1.104822896208565E-4      8.650590306828554E-11
1.1091009483615932E-4     8.609777404417385E-11
1.1133790005146212E-4     8.568915750230522E-11
1.1176570526676494E-4     8.528009552415938E-11
1.1219351048206774E-4     8.487062992927945E-11
1.1262131569737054E-4     8.446076071766537E-11
1.1304912091267334E-4     8.40504878893172E-11
1.1347692612797616E-4     8.363981144423495E-11
1.1390473134327895E-4     8.322873138241855E-11
1.1433253655858176E-4     8.281724770386807E-11
1.1476034177388458E-4     8.240540263633894E-11
1.1518814698918738E-4     8.199323810054626E-11
1.1561595220449018E-4     8.158075409648997E-11
1.16043757419793E-4       8.116795062417015E-11
1.1647156263509581E-4     8.07548276835868E-11
1.1689936785039863E-4     8.034138527473983E-11
1.1732717306570143E-4     7.992762339762932E-11
1.1775497828100424E-4     7.951358441684622E-11
1.1818278349630703E-4     7.90993102746905E-11
1.1861058871160983E-4     7.868480097116211E-11
1.1903839392691265E-4     7.827005650626107E-11
1.1946619914221545E-4     7.785507687998741E-11
1.1989400435751825E-4     7.743986209234108E-11
1.2032180957282107E-4     7.702441214332212E-11
1.2074961478812388E-4     7.660876946358103E-11
1.2117742000342669E-4     7.619297594385598E-11
1.2160522521872949E-4     7.577703158414696E-11
1.2203303043403229E-4     7.536093638445396E-11
1.2246083564933512E-4     7.494469034477703E-11
1.2288864086463792E-4     7.45282934651161E-11
1.2331644607994072E-4     7.411174574547123E-11
1.2374425129524352E-4     7.369508961064228E-11
1.2417205651054633E-4     7.327836683955713E-11
1.2459986172584913E-4     7.286157743221576E-11
1.2502766694115193E-4     7.24447213886182E-11
1.2545547215645473E-4     7.202779870876448E-11
1.2588327737175756E-4     7.161080939265451E-11
1.2631108258706036E-4     7.119375344028837E-11
1.267388878023632E-4      7.077667320663362E-11
1.2716669301766597E-4     7.035961029733044E-11
1.2759449823296877E-4     6.99425647123788E-11
1.280223034482716E-4      6.952553645177871E-11
1.284501086635744E-4      6.91085255155302E-11
1.288779138788772E-4      6.86915319036332E-11
1.2930571909418E-4        6.827455561608778E-11
1.297335243094828E-4      6.785763887390191E-11
1.301613295247856E-4      6.744082305188647E-11
1.305891347400884E-4      6.702410815004142E-11
1.310169399553912E-4      6.66074941683668E-11
1.3144474517069401E-4     6.619098110686262E-11
1.3187255038599684E-4     6.577456896552882E-11
1.3230035560129964E-4     6.535825774436544E-11
1.3272816081660245E-4     6.494208946745307E-11
1.3315596603190525E-4     6.452610523354152E-11
1.3358377124720805E-4     6.411030504263083E-11
1.3401157646251088E-4     6.369468889472099E-11
1.3443938167781368E-4     6.327925678981199E-11
1.3486718689311648E-4     6.286400872790381E-11
1.3529499210841929E-4     6.24489447089965E-11
1.357227973237221E-4      6.203410653153039E-11
1.361506025390249E-4      6.161953491804598E-11
1.365784077543277E-4      6.120522986854327E-11
1.370062129696305E-4      6.079119138302227E-11
1.374340181849333E-4      6.0377419461483E-11
1.378618234002361E-4      5.99639141039254E-11
1.382896286155389E-4      5.955067531034953E-11
1.387174338308417E-4      5.913774453034861E-11
1.391452390461445E-4      5.872516210509601E-11
1.395730442614473E-4      5.831292803459171E-11
1.4000084947675013E-4     5.790104231883572E-11
1.4042865469205294E-4     5.7489504957828076E-11
1.4085645990735574E-4     5.707831595156871E-11
1.4128426512265854E-4     5.666747530005768E-11
1.4171207033796137E-4     5.625702411711149E-11
1.4213987555326417E-4     5.584700226528797E-11
1.4256768076856697E-4     5.5437409744587095E-11
1.4299548598386977E-4     5.5028246555008876E-11
1.4342329119917258E-4     5.4619512696553327E-11
1.4385109641447538E-4     5.421120816922042E-11
1.442789016297782E-4      5.3803332973010185E-11
1.44706706845081E-4       5.339592777486016E-11
1.451345120603838E-4      5.29890319188659E-11
1.4556231727568659E-4     5.258264540502744E-11
1.4599012249098941E-4     5.217676823334476E-11
1.4641792770629222E-4     5.177140040381787E-11
1.46845732921595E-4       5.136654191644675E-11
1.4727353813689782E-4     5.096219277123143E-11
1.4770134335220065E-4     5.055839314956225E-11
1.4812914856750345E-4     5.015518183248153E-11
1.4855695378280625E-4     4.9752558819989265E-11
1.4898475899810905E-4     4.935052411208546E-11
1.4941256421341186E-4     4.894907770877013E-11
1.4984036942871466E-4     4.8548219610043235E-11
1.502681746440175E-4      4.814794981590482E-11
1.5069597985932032E-4     4.774830797626642E-11
1.511237850746231E-4      4.73493322492379E-11
1.515515902899259E-4      4.695102263481929E-11
1.5197939550522872E-4     4.655337913301057E-11
1.5240720072053152E-4     4.6156401743811756E-11
1.5283500593583433E-4     4.576009046722283E-11
1.5326281115113713E-4     4.536444530324381E-11
1.5369061636643996E-4     4.496950531410671E-11
1.5411842158174273E-4     4.457530797927562E-11
1.5454622679704553E-4     4.4181853298750534E-11
1.5497403201234834E-4     4.3789141272531455E-11
1.5540183722765116E-4     4.3397171900618394E-11
1.5582964244295397E-4     4.300594518301133E-11
1.5625744765825677E-4     4.2615461119710283E-11
1.566852528735596E-4      4.22257581255933E-11
1.571130580888624E-4      4.1836872955948696E-11
1.5754086330416517E-4     4.1448805610776436E-11
1.57968668519468E-4       4.106155609007655E-11
1.583964737347708E-4      4.067512439384903E-11
1.588242789500736E-4      4.0289510522093854E-11
1.592520841653764E-4      3.990471447481105E-11
1.596798893806792E-4      3.952077397324873E-11
1.60107694595982E-4       3.913772499996382E-11
1.6053549981128481E-4     3.875556755495632E-11
1.6096330502658764E-4     3.837430163822622E-11
1.6139111024189047E-4     3.7993927249773533E-11
1.6181891545719325E-4     3.761444438959825E-11
1.6224672067249608E-4     3.7235853057700374E-11
1.6267452588779888E-4     3.685819023182237E-11
1.6310233110310168E-4     3.648149107215001E-11
1.6353013631840448E-4     3.6105755578683275E-11
1.6395794153370728E-4     3.573098375142217E-11
1.6438574674901009E-4     3.535717559036671E-11
1.6481355196431292E-4     3.498433109551687E-11
1.6524135717961572E-4     3.461245026687267E-11
1.6566916239491852E-4     3.4241569288790295E-11
1.6609696761022132E-4     3.387172245314842E-11
1.665247728255241E-4      3.350290975994704E-11
1.6695257804082692E-4     3.313513120918616E-11
1.6738038325612973E-4     3.276838680086578E-11
1.6780818847143253E-4     3.240267653498589E-11
1.6823599368673533E-4     3.2038000411546507E-11
1.6866379890203816E-4     3.167439377406078E-11
1.6909160411734093E-4     3.131189000114543E-11
1.6951940933264374E-4     3.095048909280048E-11
1.6994721454794657E-4     3.059019104902591E-11
1.7037501976324937E-4     3.023099586982173E-11
1.7080282497855217E-4     2.9872903555187935E-11
1.7123063019385497E-4     2.951591410512453E-11
1.716584354091578E-4      2.9160061976264003E-11
1.7208624062446057E-4     2.8805379590145074E-11
1.7251404583976338E-4     2.8451866946767717E-11
1.7294185105506618E-4     2.8099524046131952E-11
1.73369656270369E-4       2.7748350888237778E-11
1.737974614856718E-4      2.739834747308518E-11
1.742252667009746E-4      2.7049513800674178E-11
1.7465307191627744E-4     2.6701883395920388E-11
1.7508087713158024E-4     2.6355487680768664E-11
1.7550868234688304E-4     2.6010326655219E-11
1.7593648756218587E-4     2.5666400319271408E-11
1.7636429277748868E-4     2.5323708672925882E-11
1.767920979927915E-4      2.4982251716182417E-11
1.772199032080943E-4      2.4642029449041022E-11
1.776477084233971E-4      2.430307442113539E-11
1.780755136386999E-4      2.3965417013667214E-11
1.785033188540027E-4      2.362905722663649E-11
1.7893112406930551E-4     2.3293995060043225E-11
1.793589292846083E-4      2.2960230513887424E-11
1.7978673449991112E-4     2.2627763588169067E-11
1.802145397152139E-4      2.229659428288817E-11
1.806423449305167E-4      2.1966754130157157E-11
1.810701501458195E-4      2.163827243068531E-11
1.8149795536112233E-4     2.1311149184472624E-11
1.8192576057642513E-4     2.0985384391519106E-11
1.8235356579172793E-4     2.066097805182476E-11
1.8278137100703073E-4     2.0337930165389573E-11
1.8320917622233353E-4     2.0016240732213554E-11
1.8363698143763634E-4     1.969594022602649E-11
1.8406478665293914E-4     1.9377056828699043E-11
1.8449259186824194E-4     1.905959054023122E-11
1.8492039708354474E-4     1.874354136062302E-11
1.8534820229884757E-4     1.8428909289874445E-11
1.8577600751415034E-4     1.8115694327985482E-11
1.8620381272945317E-4     1.7803896474956147E-11
1.86631617944756E-4       1.749354510666218E-11
1.870594231600588E-4      1.718466724922243E-11
1.874872283753616E-4      1.687726290263689E-11
1.879150335906644E-4      1.657133206690557E-11
1.8834283880596726E-4     1.6266874742028467E-11
1.8877064402127007E-4     1.5963890928005566E-11
1.8919844923657287E-4     1.5662380624836888E-11
1.8962625445187567E-4     1.5362372072500104E-11
1.9005405966717847E-4     1.5063891105895104E-11
1.9048186488248125E-4     1.4766937725021878E-11
1.9090967009778408E-4     1.447151192988043E-11
1.9133747531308685E-4     1.4177613720470762E-11
1.9176528052838965E-4     1.3885243096792866E-11
1.9219308574369245E-4     1.3594400058846752E-11
1.9262089095899528E-4     1.3305111674093573E-11
1.9304869617429806E-4     1.301740255223889E-11
1.9347650138960086E-4     1.2731272693282695E-11
1.939043066049037E-4      1.2446722097224991E-11
1.943321118202065E-4      1.2163750764065785E-11
1.947599170355093E-4      1.1882358693805063E-11
1.951877222508121E-4      1.1602545886442838E-11
1.9561552746611492E-4     1.1324338201776625E-11
1.960433326814177E-4      1.1047758991837269E-11
1.964711378967205E-4      1.0772808256624776E-11
1.968989431120233E-4      1.0499485996139139E-11
1.973267483273261E-4      1.0227792210380365E-11
1.9775455354262893E-4     9.95772689934845E-12
1.9818235875793174E-4     9.689290063043392E-12
1.9861016397323456E-4     9.42250631993405E-12
1.9903796918853734E-4     9.157397733428437E-12
1.9946577440384014E-4     8.893964303526556E-12
1.9989357961914297E-4     8.6322060302284E-12
2.0032138483444577E-4     8.372122913533982E-12
2.0074919004974857E-4     8.11371495344329E-12
2.0117699526505138E-4     7.85698214995633E-12
2.0160480048035418E-4     7.601947848070918E-12
2.02032605695657E-4       7.348632793168651E-12
2.024604109109598E-4      7.097036985249532E-12
2.0288821612626264E-4     6.8471604243135596E-12
2.0331602134156544E-4     6.599003110360737E-12
2.0374382655686824E-4     6.352565043391058E-12
2.0417163177217107E-4     6.107846223404528E-12
2.0459943698747387E-4     5.864868691308634E-12
2.0502724220277665E-4     5.623651846644746E-12
2.0545504741807945E-4     5.3841956894128616E-12
2.0588285263338225E-4     5.146500219612982E-12
2.0631065784868508E-4     4.9105654372451116E-12
2.0673846306398786E-4     4.676391342309242E-12
2.0716626827929066E-4     4.443977934805379E-12
2.0759407349459349E-4     4.213345922501063E-12
2.080218787098963E-4      3.984513332876733E-12
2.084496839251991E-4      3.757480165932385E-12
2.0887748914050192E-4     3.5322464216680207E-12
2.0930529435580472E-4     3.3088121000836417E-12
2.0973309957110755E-4     3.087177201179245E-12
2.1016090478641035E-4     2.8673417249548334E-12
2.1058871000171318E-4     2.649325018567096E-12
2.1101651521701598E-4     2.4331437128474336E-12
2.1144432043231876E-4     2.2187978077958462E-12
2.118721256476216E-4      2.006287303412334E-12
2.1229993086292436E-4     1.7956121996968984E-12
2.127277360782272E-4      1.5867724966495372E-12
2.1315554129353E-4        1.3797681942702516E-12
2.1358334650883282E-4     1.1746172532554302E-12
2.140111517241356E-4      9.713348848417318E-13
2.144389569394384E-4      7.699210890291566E-13
2.1486676215474123E-4     5.703758658177046E-13
2.1529456737004406E-4     3.72699215207376E-13
2.1572237258534683E-4     1.768911371981703E-13
2.1615017780064966E-4     -1.7048368209912022E-14
2.1657798301595246E-4     -2.0910275100872132E-13
2.1700578823125526E-4     -3.9925824081295554E-13
2.1743359344655804E-4     -5.875148376226145E-13
2.1786139866186087E-4     -7.738725414376987E-13
2.1828920387716367E-4     -9.583313522582077E-13
2.1871700909246647E-4     -1.1408912700841415E-12
2.1914481430776927E-4     -1.3215522949155004E-12
2.1957261952307208E-4     -1.5002993099919587E-12
2.2000042473837488E-4     -1.6771200053447173E-12
2.2042822995367768E-4     -1.852014380973775E-12
2.2085603516898048E-4     -2.0249824368791334E-12
2.212838403842833E-4      -2.196024173060792E-12
2.2171164559958608E-4     -2.36513958951875E-12
2.2213945081488891E-4     -2.532328686253008E-12
2.2256725603019174E-4     -2.6975778006335984E-12
2.2299506124549454E-4     -2.8608761009419305E-12
2.2342286646079735E-4     -3.022223587178003E-12
2.2385067167610018E-4     -3.1816202593418172E-12
2.24278476891403E-4       -3.339066117433373E-12
2.247062821067058E-4      -3.494561161452669E-12
2.251340873220086E-4      -3.648105391399707E-12
2.2556189253731144E-4     -3.79968661793804E-12
2.259896977526142E-4      -3.949295503692388E-12
2.2641750296791701E-4     -4.096932048662747E-12
2.2684530818321982E-4     -4.242596252849122E-12
2.2727311339852262E-4     -4.386288116251511E-12
2.2770091861382545E-4     -4.528007638869911E-12
2.2812872382912825E-4     -4.667754820704327E-12
2.2855652904443108E-4     -4.8055189631537386E-12
2.2898433425973385E-4     -4.941292237494086E-12
2.2941213947503665E-4     -5.0750746437253645E-12
2.2983994469033948E-4     -5.206866181847579E-12
2.3026774990564229E-4     -5.3366668518607286E-12
2.306955551209451E-4      -5.464476653764809E-12
2.311233603362479E-4      -5.590295587559825E-12
2.3155116555155072E-4     -5.7141144610599306E-12
2.319789707668535E-4      -5.835926966709805E-12
2.324067759821563E-4      -5.955733104509443E-12
2.328345811974591E-4      -6.073532874458851E-12
2.3326238641276193E-4     -6.1893262765580275E-12
2.336901916280647E-4      -6.303113310806968E-12
2.3411799684336753E-4     -6.414893977205677E-12
2.3454580205867033E-4     -6.524660603880543E-12
2.3497360727397316E-4     -6.632408415141225E-12
2.354014124892759E-4      -6.738137410987723E-12
2.3582921770457876E-4     -6.841847591420036E-12
2.3625702291988157E-4     -6.943538956438166E-12
2.3668482813518437E-4     -7.04321150604211E-12
2.3711263335048717E-4     -7.1408652402318695E-12
2.3754043856578997E-4     -7.23649401954359E-12
2.3796824378109277E-4     -7.330094608999935E-12
2.3839604899639558E-4     -7.421667008600903E-12
2.3882385421169838E-4     -7.511211218346496E-12
2.3925165942700118E-4     -7.598727238236715E-12
2.39679464642304E-4       -7.684215068271553E-12
2.401072698576068E-4      -7.76767470845102E-12
2.4053507507290964E-4     -7.8491015619846E-12
2.4096288028821244E-4     -7.928493941595884E-12
2.4139068550351524E-4     -8.005851847284875E-12
2.4181849071881805E-4     -8.081175279051568E-12
2.4224629593412085E-4     -8.154464236895972E-12
2.426741011494237E-4      -8.225718720818075E-12
2.431019063647265E-4      -8.294938730817886E-12
2.4352971158002933E-4     -8.362121221195164E-12
2.439575167953321E-4      -8.42726605746841E-12
2.443853220106349E-4      -8.490373239637628E-12
2.448131272259377E-4      -8.551442767702814E-12
2.452409324412405E-4      -8.610474641663972E-12
2.456687376565433E-4      -8.667468861521096E-12
2.460965428718461E-4      -8.722425427274193E-12
2.46524348087149E-4       -8.775342850853768E-12
2.469521533024517E-4      -8.82622255376026E-12
2.473799585177545E-4      -8.875064535993666E-12
2.478077637330573E-4      -8.921868797553986E-12
2.482355689483602E-4      -8.966635338441224E-12
2.48663374163663E-4       -9.009364158655373E-12
2.490911793789658E-4      -9.05005525819644E-12
2.495189845942686E-4      -9.088708711275149E-12
2.499467898095714E-4      -9.125327496625949E-12
2.503745950248742E-4      -9.159911614248835E-12
2.50802400240177E-4       -9.192461064143814E-12
2.5123020545547985E-4     -9.222975846310886E-12
2.5165801067078265E-4     -9.251455960750045E-12
2.5208581588608545E-4     -9.277901407461295E-12
2.5251362110138826E-4     -9.302313825663442E-12
2.5294142631669106E-4     -9.324697750630815E-12
2.533692315319938E-4      -9.345053182363412E-12
2.5379703674729666E-4     -9.363380120861235E-12
2.5422484196259946E-4     -9.379678566124288E-12
2.5465264717790227E-4     -9.39394851815256E-12
2.5508045239320507E-4     -9.406189976946062E-12
2.5550825760850787E-4     -9.41640614752506E-12
2.559360628238107E-4      -9.424603119035115E-12
2.563638680391135E-4      -9.430780891476219E-12
2.5679167325441633E-4     -9.434939464848372E-12
2.5721947846971913E-4     -9.437078839151582E-12
2.57647283685022E-4       -9.437199014385838E-12
2.580750889003248E-4      -9.43529999055115E-12
2.5850289411562765E-4     -9.431386537303061E-12
2.589306993309304E-4      -9.425466293003794E-12