% Model:              ModelMicPlate_Rh20um_hg5um_Refined_MaterialDefPolySilicon.mph
% Version:            COMSOL 6.3.0.335
% Date:               May 21 2025, 13:50
% Dimension:          1
% Nodes:              708
% Expressions:        1
% Description:        Line graph
% Arc length (m)          real(w2)
0                         -3.7648104177003474E-12
4.0816326530612243E-7     -3.764631757795075E-12
8.163265306122445E-7      -3.764097162986831E-12
1.224489795918367E-6      -3.763206633275615E-12
1.632653061224489E-6      -3.7619601686614256E-12
2.0408163265306117E-6     -3.760357769144266E-12
2.448979591836734E-6      -3.7583994347241344E-12
2.857142857142856E-6      -3.756085165401031E-12
3.265306122448978E-6      -3.753415082069749E-12
3.6734693877551007E-6     -3.750390435077366E-12
4.0816326530612225E-6     -3.747011224423879E-12
4.489795918367345E-6      -3.74327745010929E-12
4.897959183673468E-6      -3.739189112133599E-12
5.30612244897959E-6       -3.734746210496803E-12
5.714285714285712E-6      -3.7299487451989056E-12
6.1224489795918346E-6     -3.724797568927353E-12
6.530612244897958E-6      -3.719294592087992E-12
6.9387755102040806E-6     -3.713439814680821E-12
7.3469387755102015E-6     -3.707233236705844E-12
7.755102040816326E-6      -3.700674858163058E-12
8.163265306122448E-6      -3.693764679052464E-12
8.571428571428571E-6      -3.6865026993740606E-12
8.979591836734694E-6      -3.678890339781529E-12
9.387755102040816E-6      -3.670930341748454E-12
9.795918367346939E-6      -3.662622705274834E-12
1.020408163265306E-5      -3.653967430360672E-12
1.0612244897959184E-5     -3.644964517005966E-12
1.1020408163265308E-5     -3.6356139652107157E-12
1.1428571428571429E-5     -3.6259157749749224E-12
1.1836734693877552E-5     -3.615871852442823E-12
1.2244897959183674E-5     -3.6054857763253285E-12
1.2653061224489795E-5     -3.5947575466224367E-12
1.3061224489795918E-5     -3.5836871633341507E-12
1.346938775510204E-5      -3.572274626460469E-12
1.3877551020408165E-5     -3.560519936001391E-12
1.4285714285714285E-5     -3.5484230919569167E-12
1.4693877551020408E-5     -3.535986782411449E-12
1.510204081632653E-5      -3.5232151074013355E-12
1.5510204081632655E-5     -3.510108066926574E-12
1.5918367346938776E-5     -3.4966656609871676E-12
1.63265306122449E-5       -3.4828878895831145E-12
1.6734693877551024E-5     -3.468774752714414E-12
1.7142857142857145E-5     -3.4543262503810683E-12
1.755102040816327E-5      -3.439545867943091E-12
1.795918367346939E-5      -3.424438274108419E-12
1.8367346938775515E-5     -3.40900346887705E-12
1.8775510204081636E-5     -3.3932414522489876E-12
1.9183673469387756E-5     -3.3771522242242287E-12
1.959183673469388E-5      -3.360735784802774E-12
2.0E-5                    -3.343992133984625E-12
2.042553191489362E-5      -3.3261897663809936E-12
2.0851063829787234E-5     -3.3080426125143367E-12
2.1276595744680852E-5     -3.289550672384657E-12
2.1702127659574467E-5     -3.270713945991953E-12
2.212765957446808E-5      -3.2515324333362262E-12
2.2553191489361703E-5     -3.2320061344174746E-12
2.2978723404255317E-5     -3.2121350492356993E-12
2.3404255319148935E-5     -3.1919213683615755E-12
2.382978723404255E-5      -3.1713748837305004E-12
2.4255319148936165E-5     -3.1504955953424738E-12
2.4680851063829783E-5     -3.129283503197496E-12
2.51063829787234E-5       -3.1077386072955677E-12
2.5531914893617015E-5     -3.085860907636686E-12
2.5957446808510633E-5     -3.0636504042208547E-12
2.638297872340425E-5      -3.0411110991849936E-12
2.6808510638297866E-5     -3.0182523270988364E-12
2.7234042553191484E-5     -2.995074087962383E-12
2.7659574468085102E-5     -2.9715763817756336E-12
2.808510638297872E-5      -2.9477592085385887E-12
2.8510638297872334E-5     -2.9236225682512465E-12
2.8936170212765952E-5     -2.899166460913609E-12
2.936170212765957E-5      -2.8743961027923615E-12
2.9787234042553185E-5     -2.849321058405609E-12
3.02127659574468E-5       -2.8239413277533524E-12
3.063829787234042E-5      -2.7982569108355903E-12
3.106382978723404E-5      -2.7722678076523244E-12
3.148936170212765E-5      -2.745974018203553E-12
3.191489361702127E-5      -2.719375542489277E-12
3.2340425531914886E-5     -2.692478409045054E-12
3.2765957446808504E-5     -2.6652926594085128E-12
3.319148936170212E-5      -2.637818293579652E-12
3.361702127659574E-5      -2.610055311558472E-12
3.404255319148936E-5      -2.582003713344975E-12
3.4468085106382976E-5     -2.5536634989391573E-12
3.4893617021276594E-5     -2.525034668341022E-12
3.531914893617021E-5      -2.4961239555102272E-12
3.574468085106383E-5      -2.4669418936069423E-12
3.617021276595744E-5      -2.437488482631167E-12
3.659574468085106E-5      -2.407763722582902E-12
3.702127659574468E-5      -2.377767613462147E-12
3.744680851063829E-5      -2.3475001552689013E-12
3.7872340425531907E-5     -2.3169613480031656E-12
3.8297872340425525E-5     -2.2861585820887945E-12
3.8723404255319136E-5     -2.2551028468586435E-12
3.914893617021275E-5      -2.223794142312711E-12
3.957446808510637E-5      -2.1922324684509975E-12
3.999999999999998E-5      -2.160417825273504E-12
4.04255319148936E-5       -2.1283502127802293E-12
4.085106382978722E-5      -2.096029630971174E-12
4.127659574468084E-5      -2.0634640868687203E-12
4.1702127659574455E-5     -2.0306649788710354E-12
4.2127659574468066E-5     -1.9976323069781206E-12
4.255319148936169E-5      -1.964366071189975E-12
4.29787234042553E-5       -1.9308662715065995E-12
4.340425531914893E-5      -1.8971329079279927E-12
4.382978723404254E-5      -1.863165980454156E-12
4.4255319148936156E-5     -1.828974072209536E-12
4.4680851063829774E-5     -1.7945689398446589E-12
4.5106382978723385E-5     -1.7599505833595254E-12
4.5531914893616997E-5     -1.725119002754135E-12
4.5957446808510615E-5     -1.6900741980284884E-12
4.638297872340423E-5      -1.6548161691825846E-12
4.680851063829785E-5      -1.6193449162164244E-12
4.7234042553191475E-5     -1.5836695555536377E-12
4.765957446808508E-5      -1.54780214932251E-12
4.8085106382978704E-5     -1.511742697523041E-12
4.851063829787232E-5      -1.4754912001552312E-12
4.893617021276594E-5      -1.4390476572190807E-12
4.936170212765956E-5      -1.4024120687145884E-12
4.9787234042553176E-5     -1.3655844346417558E-12
5.02127659574468E-5       -1.3285743595030226E-12
5.0638297872340406E-5     -1.2913941567152899E-12
5.1063829787234024E-5     -1.2540438262785574E-12
5.148936170212764E-5      -1.2165233681928257E-12
5.191489361702126E-5      -1.1788327824580948E-12
5.234042553191487E-5      -1.1409720690743638E-12
5.276595744680849E-5      -1.1029412280416334E-12
5.319148936170211E-5      -1.0647503044919583E-12
5.3617021276595725E-5     -1.026411807851408E-12
5.404255319148934E-5      -9.879257381199821E-13
5.446808510638296E-5      -9.49292095297681E-13
5.489361702127658E-5      -9.105108793845048E-13
5.53191489361702E-5       -8.715820903804529E-13
5.5744680851063815E-5     -8.325057282855258E-13
5.617021276595743E-5      -7.932922294302515E-13
5.6595744680851044E-5     -7.539542431669753E-13
5.7021276595744655E-5     -7.144917694956969E-13
5.744680851063827E-5      -6.74904808416416E-13
5.7872340425531884E-5     -6.351933599291334E-13
5.82978723404255E-5       -5.953574240338483E-13
5.8723404255319114E-5     -5.553970007305612E-13
5.914893617021274E-5      -5.153228663966114E-13
5.9574468085106356E-5     -4.751477537058096E-13
5.999999999999997E-5      -4.348716626581558E-13
6.042553191489359E-5      -3.9449459325365E-13
6.085106382978722E-5      -3.540165454922923E-13
6.127659574468083E-5      -3.1343751937408243E-13
6.170212765957445E-5      -2.727575148990207E-13
6.212765957446806E-5      -2.3198759588776527E-13
6.255319148936169E-5      -1.9114052148916354E-13
6.297872340425529E-5      -1.5021629170321553E-13
6.340425531914891E-5      -1.0921490652992123E-13
6.382978723404252E-5      -6.813636596928068E-14
6.425531914893613E-5      -2.6980670021293787E-14
6.468085106382975E-5      1.425218131403935E-14
6.510638297872337E-5      5.5550890555257114E-14
6.553191489361698E-5      9.6902728886416E-14
6.59574468085106E-5       1.38307696307516E-13
6.638297872340422E-5      1.7976579281855716E-13
6.680851063829784E-5      2.2127701841953946E-13
6.723404255319147E-5      2.628413731104629E-13
6.765957446808508E-5      3.0445885689132745E-13
6.80851063829787E-5       3.461179933058133E-13
6.851063829787231E-5      3.8780614036148046E-13
6.893617021276593E-5      4.295232980583288E-13
6.936170212765955E-5      4.712694663963583E-13
6.978723404255316E-5      5.130446453755692E-13
7.021276595744679E-5      5.548488349959612E-13
7.06382978723404E-5       5.966820352575345E-13
7.106382978723402E-5      6.385326460403001E-13
7.148936170212763E-5      6.803881680730018E-13
7.191489361702124E-5      7.222486013556396E-13
7.234042553191486E-5      7.641139458882136E-13
7.276595744680848E-5      8.059842016707239E-13
7.31914893617021E-5       8.478593687031698E-13
7.361702127659572E-5      8.897394469855523E-13
7.404255319148934E-5      9.316127683917818E-13
7.446808510638294E-5      9.734670314047044E-13
7.489361702127655E-5      1.0153022360243197E-12
7.531914893617019E-5      1.0571183822506281E-12
7.574468085106379E-5      1.09891547008363E-12
7.617021276595741E-5      1.1406934995233243E-12
7.659574468085102E-5      1.1824524705697122E-12
7.702127659574463E-5      1.224180702815862E-12
7.744680851063826E-5      1.2658661464003642E-12
7.787234042553187E-5      1.3075088013232184E-12
7.82978723404255E-5       1.349108667584425E-12
7.87234042553191E-5       1.3906657451839838E-12
7.914893617021272E-5      1.4321800341218946E-12
7.957446808510634E-5      1.4736515343981577E-12
7.999999999999997E-5      1.515068608840386E-12
8.042553191489356E-5      1.5564195117536503E-12
8.085106382978717E-5      1.5977042431379495E-12
8.12765957446808E-5       1.6389228029932842E-12
8.170212765957441E-5      1.680075191319655E-12
8.212765957446802E-5      1.7211614081170607E-12
8.255319148936163E-5      1.7621814533855021E-12
8.297872340425526E-5      1.8031237882178575E-12
8.340425531914888E-5      1.8439770219534396E-12
8.38297872340425E-5       1.8847411545922472E-12
8.425531914893612E-5      1.925416186134281E-12
8.468085106382974E-5      1.966002116579542E-12
8.510638297872335E-5      2.0064989459280283E-12
8.553191489361698E-5      2.0469066741797413E-12
8.59574468085106E-5       2.0872139149682603E-12
8.638297872340422E-5      2.1274096816486495E-12
8.680851063829783E-5      2.167493974220907E-12
8.723404255319144E-5      2.207466792685035E-12
8.765957446808508E-5      2.2473281370410323E-12
8.808510638297869E-5      2.2870780072888983E-12
8.85106382978723E-5       2.326716403428635E-12
8.893617021276592E-5      2.366232144888852E-12
8.936170212765952E-5      2.4056146959028466E-12
8.978723404255313E-5      2.444864056470619E-12
9.021276595744674E-5      2.4839802265921686E-12
9.063829787234035E-5      2.5229632062674964E-12
9.106382978723398E-5      2.561812995496601E-12
9.148936170212759E-5      2.600529594279484E-12
9.191489361702122E-5      2.6391020798133433E-12
9.234042553191483E-5      2.6775204117317026E-12
9.276595744680844E-5      2.715784590034562E-12
9.319148936170208E-5      2.753894614721921E-12
9.361702127659569E-5      2.7918504857937796E-12
9.40425531914893E-5       2.8296522032501383E-12
9.446808510638292E-5      2.867299767090997E-12
9.489361702127655E-5      2.904782562723432E-12
9.531914893617015E-5      2.9420910871528938E-12
9.574468085106377E-5      2.979225340379381E-12
9.617021276595738E-5      3.0161853224028944E-12
9.6595744680851E-5        3.052971033223434E-12
9.702127659574462E-5      3.0895824728409993E-12
9.744680851063823E-5      3.126019641255591E-12
9.787234042553185E-5      3.162272280750292E-12
9.829787234042548E-5      3.1983314649276553E-12
9.872340425531908E-5      3.2341971937876822E-12
9.914893617021271E-5      3.269869467330371E-12
9.957446808510633E-5      3.3053482855557238E-12
9.999999999999995E-5      3.340633648463737E-12
1.0042553191489358E-4     3.3757255560544153E-12
1.008510638297872E-4      3.410614154144141E-12
1.012765957446808E-4      3.4452911292296705E-12
1.0170212765957441E-4     3.4797564813110016E-12
1.0212765957446803E-4     3.514010210388136E-12
1.0255319148936166E-4     3.548052316461074E-12
1.0297872340425527E-4     3.5818827995298133E-12
1.0340425531914888E-4     3.6155016595943555E-12
1.038297872340425E-4      3.648899490430868E-12
1.0425531914893612E-4     3.682068624631982E-12
1.0468085106382971E-4     3.715009062197696E-12
1.0510638297872335E-4     3.747720803128013E-12
1.0553191489361695E-4     3.780203847422931E-12
1.0595744680851058E-4     3.812458195082448E-12
1.0638297872340419E-4     3.844483846106569E-12
1.068085106382978E-4      3.876271884217E-12
1.0723404255319141E-4     3.907815318057023E-12
1.0765957446808503E-4     3.939114147626635E-12
1.0808510638297865E-4     3.970168372925839E-12
1.0851063829787227E-4     4.000977993954634E-12
1.0893617021276588E-4     4.031543010713018E-12
1.093617021276595E-4      4.061863423200995E-12
1.0978723404255313E-4     4.091930844433413E-12
1.1021276595744674E-4     4.121738985677558E-12
1.1063829787234035E-4     4.1512878469334276E-12
1.1106382978723399E-4     4.180577428201024E-12
1.114893617021276E-4      4.209607729480347E-12
1.1191489361702123E-4     4.238378750771395E-12
1.1234042553191484E-4     4.266890492074169E-12
1.1276595744680846E-4     4.2951351322225205E-12
1.1319148936170207E-4     4.323107108182106E-12
1.1361702127659569E-4     4.350806419952925E-12
1.140425531914893E-4      4.37823306753498E-12
1.1446808510638292E-4     4.40538705092827E-12
1.1489361702127652E-4     4.432268370132792E-12
1.1531914893617014E-4     4.4588770251485496E-12
1.1574468085106377E-4     4.485205794164411E-12
1.1617021276595738E-4     4.5112498593191154E-12
1.1659574468085099E-4     4.53700922061266E-12
1.1702127659574462E-4     4.562483878045047E-12
1.1744680851063824E-4     4.587673831616278E-12
1.1787234042553185E-4     4.6125790813263476E-12
1.1829787234042546E-4     4.63719962717526E-12
1.1872340425531909E-4     4.661528877100038E-12
1.191489361702127E-4      4.685562774205506E-12
1.1957446808510631E-4     4.709301318491663E-12
1.1999999999999994E-4     4.732744509958509E-12
1.2042553191489355E-4     4.7558923486060476E-12
1.2085106382978716E-4     4.778744834434273E-12
1.2127659574468078E-4     4.801301967443189E-12
1.2170212765957441E-4     4.82355781243089E-12
1.2212765957446802E-4     4.845509085516153E-12
1.2255319148936163E-4     4.867155786698973E-12
1.2297872340425524E-4     4.8884979159793555E-12
1.2340425531914888E-4     4.9095354733573E-12
1.238297872340425E-4      4.930268458832802E-12
1.242553191489361E-4      4.950696872405865E-12
1.246808510638297E-4      4.970815459448636E-12
1.2510638297872332E-4     4.990621717350916E-12
1.2553191489361694E-4     5.010115646112702E-12
1.2595744680851055E-4     5.029297245733997E-12
1.2638297872340416E-4     5.0481665162148E-12
1.268085106382978E-4      5.066723457555108E-12
1.272340425531914E-4      5.084968069754926E-12
1.2765957446808505E-4     5.102895798970943E-12
1.2808510638297863E-4     5.120504928303663E-12
1.2851063829787224E-4     5.137795457753083E-12
1.2893617021276588E-4     5.154767387319207E-12
1.293617021276595E-4      5.171420717002035E-12
1.297872340425531E-4      5.187755446801563E-12
1.302127659574467E-4      5.203771576717794E-12
1.3063829787234032E-4     5.219465270314776E-12
1.3106382978723396E-4     5.234835597018524E-12
1.3148936170212755E-4     5.24988255682904E-12
1.3191489361702118E-4     5.2646061497463224E-12
1.3234042553191482E-4     5.279006375770373E-12
1.3276595744680843E-4     5.2930832349011885E-12
1.3319148936170205E-4     5.306836727138772E-12
1.3361702127659568E-4     5.320263746422644E-12
1.340425531914893E-4      5.3333641453053536E-12
1.344680851063829E-4      5.346137923786899E-12
1.3489361702127652E-4     5.358585081867281E-12
1.3531914893617016E-4     5.370705619546501E-12
1.3574468085106377E-4     5.382499536824554E-12
1.3617021276595738E-4     5.393966833701446E-12
1.36595744680851E-4       5.4051051437575165E-12
1.370212765957446E-4      5.415915095688293E-12
1.374468085106382E-4      5.426396689493777E-12
1.3787234042553182E-4     5.436549925173967E-12
1.3829787234042546E-4     5.4463748027288655E-12
1.3872340425531907E-4     5.4558713221584684E-12
1.3914893617021268E-4     5.465039483462779E-12
1.395744680851063E-4      5.4738776653953975E-12
1.399999999999999E-4      5.4823872620749565E-12
1.4042553191489352E-4     5.490568273501457E-12
1.4085106382978716E-4     5.4984206996748985E-12
1.4127659574468077E-4     5.505944540595283E-12
1.4170212765957438E-4     5.513139796262607E-12
1.42127659574468E-4       5.520006466676873E-12
1.4255319148936163E-4     5.526543677552854E-12
1.429787234042552E-4      5.532753574042252E-12
1.4340425531914882E-4     5.53863615614507E-12
1.4382978723404246E-4     5.5441914238613056E-12
1.4425531914893607E-4     5.549419377190961E-12
1.446808510638297E-4      5.554320016134032E-12
1.4510638297872332E-4     5.558893340690523E-12
1.4553191489361696E-4     5.563139221587138E-12
1.4595744680851054E-4     5.567060537031909E-12
1.4638297872340416E-4     5.570657287024836E-12
1.468085106382978E-4      5.573929471565921E-12
1.472340425531914E-4      5.576877090655163E-12
1.4765957446808502E-4     5.5795001442925595E-12
1.4808510638297863E-4     5.5817986324781145E-12
1.4851063829787224E-4     5.5837731652896795E-12
1.4893617021276588E-4     5.585427332529022E-12
1.493617021276595E-4      5.5867611341961414E-12
1.497872340425531E-4      5.5877745702910384E-12
1.5021276595744674E-4     5.588467640813714E-12
1.5063829787234035E-4     5.588840345764167E-12
1.5106382978723396E-4     5.5888926851423975E-12
1.5148936170212757E-4     5.588625999048657E-12
1.519148936170212E-4      5.5880445640475195E-12
1.523404255319148E-4      5.587148380138986E-12
1.5276595744680843E-4     5.5859374473230546E-12
1.5319148936170204E-4     5.584411765599729E-12
1.5361702127659563E-4     5.5825713349690035E-12
1.5404255319148927E-4     5.580416155430883E-12
1.5446808510638288E-4     5.5779482841730185E-12
1.548936170212765E-4      5.5751726564566595E-12
1.553191489361701E-4      5.572089272281807E-12
1.557446808510637E-4      5.568698131648461E-12
1.5617021276595732E-4     5.564999234556623E-12
1.5659574468085093E-4     5.560992581006289E-12
1.5702127659574457E-4     5.556678170997463E-12
1.574468085106382E-4      5.5520587623432074E-12
1.578723404255318E-4      5.547139917848389E-12
1.5829787234042543E-4     5.541921637513006E-12
1.5872340425531904E-4     5.536403921337059E-12
1.5914893617021266E-4     5.530586769320551E-12
1.595744680851063E-4      5.524470181463476E-12
1.599999999999999E-4      5.5180541577658384E-12
1.6042553191489354E-4     5.5113421367731226E-12
1.6085106382978715E-4     5.504340274756572E-12
1.6127659574468077E-4     5.497048571716188E-12
1.6170212765957438E-4     5.489467027651967E-12
1.62127659574468E-4       5.481595642563914E-12
1.6255319148936163E-4     5.473434416452025E-12
1.6297872340425524E-4     5.464983349316301E-12
1.6340425531914885E-4     5.456246537223278E-12
1.6382978723404246E-4     5.447230693085056E-12
1.642553191489361E-4      5.437935816901637E-12
1.646808510638297E-4      5.4283619086730214E-12
1.6510638297872332E-4     5.418508968399208E-12
1.6553191489361693E-4     5.408376996080197E-12
1.6595744680851054E-4     5.397965991715988E-12
1.6638297872340415E-4     5.387280682492742E-12
1.668085106382978E-4      5.37632829857803E-12
1.6723404255319138E-4     5.36510883997185E-12
1.6765957446808501E-4     5.3536223066742046E-12
1.6808510638297863E-4     5.341868698685094E-12
1.6851063829787224E-4     5.329848016004514E-12
1.6893617021276588E-4     5.3175602586324685E-12
1.693617021276595E-4      5.305010755426476E-12
1.697872340425531E-4      5.292207212064124E-12
1.702127659574467E-4      5.2791496285454144E-12
1.7063829787234032E-4     5.265838004870346E-12
1.7106382978723396E-4     5.252272341038921E-12
1.7148936170212757E-4     5.238452637051135E-12
1.7191489361702118E-4     5.224378892906993E-12
1.7234042553191482E-4     5.210057006797858E-12
1.7276595744680843E-4     5.1954951160157695E-12
1.7319148936170204E-4     5.180693220560723E-12
1.7361702127659565E-4     5.16565132043272E-12
1.7404255319148926E-4     5.150369415631763E-12
1.744680851063829E-4      5.1348475061578486E-12
1.7489361702127651E-4     5.119085592010979E-12
1.7531914893617015E-4     5.103090105660491E-12
1.7574468085106374E-4     5.086869570186286E-12
1.7617021276595735E-4     5.070423985588361E-12
1.7659574468085099E-4     5.053753351866719E-12
1.770212765957446E-4      5.03685766902136E-12
1.774468085106382E-4      5.01973693705228E-12
1.7787234042553182E-4     5.002391155959483E-12
1.7829787234042543E-4     4.984827254899026E-12
1.7872340425531904E-4     4.9670540952082856E-12
1.7914893617021265E-4     4.94907167688726E-12
1.795744680851063E-4      4.930879999935949E-12
1.7999999999999993E-4     4.912479064354358E-12
1.8042553191489351E-4     4.893868870142479E-12
1.8085106382978715E-4     4.875049417300317E-12
1.8127659574468076E-4     4.856028091738519E-12
1.8170212765957437E-4     4.836814044051459E-12
1.8212765957446799E-4     4.8174072742391354E-12
1.825531914893616E-4      4.797807782301551E-12
1.829787234042552E-4      4.778015568238705E-12
1.8340425531914882E-4     4.7580306320505956E-12
1.8382978723404243E-4     4.737852973737225E-12
1.8425531914893607E-4     4.717490393895808E-12
1.8468085106382968E-4     4.696952282146104E-12
1.851063829787233E-4      4.676238638488112E-12
1.8553191489361693E-4     4.655349462921834E-12
1.8595744680851054E-4     4.634284755447269E-12
1.8638297872340418E-4     4.613044516064415E-12
1.868085106382978E-4      4.591628744773275E-12
1.8723404255319143E-4     4.570045612867322E-12
1.8765957446808504E-4     4.548304697772529E-12
1.8808510638297862E-4     4.526405999488898E-12
1.8851063829787226E-4     4.504349518016427E-12
1.8893617021276585E-4     4.4821352533551175E-12
1.8936170212765949E-4     4.4597632055049676E-12
1.897872340425531E-4      4.437233374465979E-12
1.9021276595744673E-4     4.4145542565369624E-12
1.9063829787234032E-4     4.3917355649895175E-12
1.9106382978723393E-4     4.368777299823645E-12
1.9148936170212757E-4     4.3456794610393475E-12
1.9191489361702115E-4     4.322442048636623E-12
1.923404255319148E-4      4.29906506261547E-12
1.927659574468084E-4      4.2755485029758915E-12
1.93191489361702E-4       4.25190114385933E-12
1.9361702127659562E-4     4.228132781928283E-12
1.9404255319148926E-4     4.2042434171827525E-12
1.9446808510638287E-4     4.180233049622735E-12
1.9489361702127649E-4     4.156101679248236E-12
1.953191489361701E-4      4.131849306059251E-12
1.957446808510637E-4      4.107475930055781E-12
1.9617021276595732E-4     4.082990554821281E-12
1.9659574468085096E-4     4.058403007708107E-12
1.9702127659574454E-4     4.0337132887162565E-12
1.9744680851063818E-4     4.0089213978457336E-12
1.978723404255318E-4      3.9840273350965355E-12
1.9829787234042543E-4     3.959031100468663E-12
1.9872340425531904E-4     3.933932693962116E-12
1.9914893617021268E-4     3.908741299201744E-12
1.9957446808510626E-4     3.883466721529095E-12
1.9999999999999987E-4     3.858108960944171E-12
2.004255319148935E-4      3.832668017446971E-12
2.0085106382978715E-4     3.8071438910374966E-12
2.0127659574468076E-4     3.781536581715746E-12
2.0170212765957437E-4     3.75584608948172E-12
2.02127659574468E-4       3.7300817278422225E-12
2.0255319148936162E-4     3.704253227671442E-12
2.029787234042552E-4      3.6783605889693785E-12
2.0340425531914887E-4     3.652403811736032E-12
2.0382978723404246E-4     3.6263828959714024E-12
2.042553191489361E-4      3.600297841675489E-12
2.046808510638297E-4      3.574148648848293E-12
2.0510638297872332E-4     3.5479447102031947E-12
2.0553191489361693E-4     3.521695630174327E-12
2.0595744680851054E-4     3.49540140876169E-12
2.0638297872340415E-4     3.469062045965282E-12
2.0680851063829776E-4     3.4426775417851048E-12
2.0723404255319137E-4     3.416247896221157E-12
2.0765957446808498E-4     3.38977310927344E-12
2.080851063829786E-4      3.3632626019130388E-12
2.085106382978722E-4      3.3367258008804135E-12
2.0893617021276582E-4     3.310162706175563E-12
2.0936170212765946E-4     3.283573317798487E-12
2.097872340425531E-4      3.2569576357491888E-12
2.1021276595744668E-4     3.2303156600276636E-12
2.1063829787234032E-4     3.203647390633915E-12
2.1106382978723393E-4     3.176962225816014E-12
2.1148936170212754E-4     3.1502693643144575E-12
2.1191489361702115E-4     3.123568806129245E-12
2.1234042553191476E-4     3.0968605512603778E-12
2.1276595744680837E-4     3.0701445997078557E-12
2.1319148936170198E-4     3.0434209514716764E-12
2.136170212765956E-4      3.0166896065518427E-12
2.140425531914892E-4      2.989959889700625E-12
2.1446808510638282E-4     2.963240722519623E-12
2.1489361702127643E-4     2.9365321050088345E-12
2.1531914893617004E-4     2.909834037168262E-12
2.1574468085106365E-4     2.883146518997906E-12
2.1617021276595726E-4     2.8564695504977628E-12
2.1659574468085087E-4     2.8298031316678356E-12
2.170212765957445E-4      2.803156463435044E-12
2.1744680851063815E-4     2.77653814250234E-12
2.1787234042553176E-4     2.7499481688697235E-12
2.1829787234042537E-4     2.7233865425371945E-12
2.1872340425531898E-4     2.696853263504754E-12
2.1914893617021265E-4     2.6703483317723996E-12
2.1957446808510626E-4     2.6438717473401336E-12
2.199999999999999E-4      2.6174325376534633E-12
2.2042553191489348E-4     2.5910389283375906E-12
2.208510638297871E-4      2.564690919392515E-12
2.2127659574468073E-4     2.538388510818238E-12
2.2170212765957432E-4     2.512131702614759E-12
2.2212765957446796E-4     2.4859204947820767E-12
2.2255319148936157E-4     2.459754887320193E-12
2.229787234042552E-4      2.4336436854350537E-12
2.234042553191488E-4      2.407594699265282E-12
2.238297872340424E-4      2.381607928810877E-12
2.2425531914893604E-4     2.3556833740718398E-12
2.2468085106382965E-4     2.329821035048171E-12
2.2510638297872326E-4     2.3040209117398685E-12
2.2553191489361687E-4     2.278283004146934E-12
2.2595744680851048E-4     2.2526158475923525E-12
2.2638297872340412E-4     2.227026794266951E-12
2.268085106382977E-4      2.201515844170729E-12
2.2723404255319137E-4     2.176082997303687E-12
2.2765957446808498E-4     2.1507282536658256E-12
2.280851063829786E-4      2.125451613257143E-12
2.2851063829787223E-4     2.1002530760776405E-12
2.2893617021276587E-4     2.0751408612460056E-12
2.2936170212765948E-4     2.0501218226561825E-12
2.2978723404255307E-4     2.025195960308171E-12
2.302127659574467E-4      2.00036327420197E-12
2.3063829787234032E-4     1.975623764337582E-12
2.3106382978723393E-4     1.950977430715004E-12
2.3148936170212754E-4     1.9264242733342386E-12
2.3191489361702118E-4     1.9019721503082684E-12
2.3234042553191476E-4     1.8776273791465636E-12
2.3276595744680837E-4     1.853389959849123E-12
2.3319148936170198E-4     1.8292598924159475E-12
2.336170212765956E-4      1.8052371768470368E-12
2.3404255319148923E-4     1.7813218131423905E-12
2.3446808510638284E-4     1.7575138013020094E-12
2.3489361702127648E-4     1.7338205953388525E-12
2.3531914893617007E-4     1.710247940685605E-12
2.3574468085106368E-4     1.686795837342266E-12
2.3617021276595732E-4     1.6634642853088362E-12
2.3659574468085093E-4     1.640253284585316E-12
2.3702127659574454E-4     1.6171628351717036E-12
2.3744680851063818E-4     1.5941929370680009E-12
2.378723404255318E-4      1.571350598974072E-12
2.382978723404254E-4      1.5486409610671684E-12
2.3872340425531898E-4     1.5260640233472899E-12
2.391489361702126E-4      1.503619785814436E-12
2.3957446808510623E-4     1.481308248468608E-12
2.3999999999999982E-4     1.4591294113098042E-12
2.4042553191489345E-4     1.4370832743380257E-12
2.4085106382978707E-4     1.4151763617692766E-12
2.412765957446807E-4      1.3934131779614383E-12
2.417021276595743E-4      1.3717937229145105E-12
2.4212765957446793E-4     1.350317996628494E-12
2.4255319148936154E-4     1.3289859991033886E-12
2.4297872340425515E-4     1.3077977303391936E-12
2.434042553191488E-4      1.2867531903359097E-12
2.4382978723404243E-4     1.265858381844722E-12
2.4425531914893604E-4     1.245117145537739E-12
2.4468085106382965E-4     1.2245294814149609E-12
2.4510638297872326E-4     1.2040953894763878E-12
2.4553191489361687E-4     1.18381486972202E-12
2.4595744680851054E-4     1.1636879221518569E-12
2.4638297872340415E-4     1.1437145467658987E-12
2.4680851063829776E-4     1.1239001901913472E-12
2.4723404255319137E-4     1.1042480043106316E-12
2.47659574468085E-4       1.0847579891237513E-12
2.480851063829786E-4      1.0654301446307063E-12
2.4851063829787226E-4     1.0462644708314972E-12
2.4893617021276587E-4     1.027260967726123E-12
2.493617021276595E-4      1.0084196353145846E-12
2.497872340425531E-4      9.89745331878394E-13
2.502127659574467E-4      9.712404982152642E-13
2.5063829787234026E-4     9.529051343251952E-13
2.510638297872339E-4      9.347392402081872E-13
2.5148936170212754E-4     9.1674281586424E-13
2.5191489361702115E-4     8.989158612933535E-13
2.5234042553191476E-4     8.812583764955279E-13
2.5276595744680837E-4     8.637746017217952E-13
2.53191489361702E-4       8.464662472253702E-13
2.536170212765956E-4      8.293333130062532E-13
2.540425531914892E-4      8.12375799064444E-13
2.5446808510638287E-4     7.955937053999426E-13
2.548936170212765E-4      7.78987032012749E-13
2.553191489361701E-4      7.625557789028633E-13
2.557446808510637E-4      7.463035412251969E-13
2.561702127659573E-4      7.302312820705511E-13
2.565957446808509E-4      7.143390014389258E-13
2.570212765957446E-4      6.986266993303212E-13
2.574468085106382E-4      6.830943757447374E-13
2.578723404255318E-4      6.677420306821737E-13
2.582978723404254E-4      6.525696641426309E-13
2.587234042553191E-4      6.375802018019325E-13