% Model:              ModelMicPlate_Rh100um_hg10um_Refined_MaterialDefPolySilicon.mph
% Version:            COMSOL 6.3.0.420
% Date:               Aug 12 2025, 09:08
% Dimension:          1
% Nodes:              708
% Expressions:        1
% Description:        Line graph
% Arc length (m)          real(w2)
0                         1.1242869844472398E-10
4.2016806722688943E-7     1.124280773739412E-10
8.403361344537784E-7      1.12426216673943E-10
1.260504201680668E-6      1.124231163447294E-10
1.6806722689075569E-6     1.1241877638630039E-10
2.1008403361344462E-6     1.12413196798656E-10
2.521008403361336E-6      1.1240637758179619E-10
2.941176470588225E-6      1.1239831873572095E-10
3.361344537815116E-6      1.1238901888160848E-10
3.781512605042006E-6      1.1237848086108678E-10
4.2016806722688975E-6     1.1236670467415573E-10
4.621848739495788E-6      1.1235369032081545E-10
5.0420168067226796E-6     1.1233943780106588E-10
5.46218487394957E-6       1.1232394711490702E-10
5.882352941176461E-6      1.1230721826233888E-10
6.302521008403353E-6      1.122892504768095E-10
6.722689075630246E-6      1.1227004741371035E-10
7.1428571428571385E-6     1.1224960907304135E-10
7.563025210084031E-6      1.1222793545480262E-10
7.983193277310924E-6      1.1220502655899407E-10
8.403361344537817E-6      1.1218088238561572E-10
8.823529411764708E-6      1.1215550293466757E-10
9.2436974789916E-6        1.1212888817218978E-10
9.66386554621849E-6       1.1210104245180124E-10
1.0084033613445381E-5     1.1207196577350191E-10
1.0504201680672271E-5     1.1204165813729184E-10
1.0924369747899162E-5     1.1201011954317101E-10
1.1344537815126054E-5     1.1197734999113939E-10
1.1764705882352944E-5     1.1194334948119702E-10
1.2184873949579835E-5     1.1190811871412295E-10
1.2605042016806726E-5     1.1187166274071975E-10
1.3025210084033616E-5     1.1183398156098737E-10
1.3445378151260506E-5     1.117950751749259E-10
1.3865546218487399E-5     1.1175494358253527E-10
1.4285714285714289E-5     1.117135867838155E-10
1.470588235294118E-5      1.1167100477876657E-10
1.5126050420168068E-5     1.116271989929803E-10
1.5546218487394955E-5     1.1158217517601523E-10
1.5966386554621844E-5     1.1153593332787129E-10
1.638655462184873E-5      1.1148847344854859E-10
1.6806722689075617E-5     1.1143979553804704E-10
1.7226890756302507E-5     1.1138989959636666E-10
1.7647058823529393E-5     1.1133878562350746E-10
1.8067226890756286E-5     1.1128645576453591E-10
1.8487394957983176E-5     1.112329164633823E-10
1.8907563025210073E-5     1.1117816772004655E-10
1.9327731092436962E-5     1.1112220953452877E-10
1.974789915966386E-5      1.1106504190682886E-10
2.0168067226890752E-5     1.1100666483694686E-10
2.0588235294117642E-5     1.1094707832488278E-10
2.1008403361344535E-5     1.1088628523110355E-10
2.1428571428571425E-5     1.1082429268678503E-10
2.1848739495798315E-5     1.1076110069192715E-10
2.2268907563025204E-5     1.1069670924653E-10
2.2689075630252094E-5     1.1063111835059352E-10
2.3109243697478987E-5     1.1056432800411773E-10
2.3529411764705877E-5     1.1049633820710262E-10
2.394957983193277E-5      1.1042715253097283E-10
2.436974789915966E-5      1.1035677878566569E-10
2.478991596638655E-5      1.1028521697118109E-10
2.521008403361344E-5      1.1021246708751914E-10
2.5630252100840332E-5     1.1013852913467981E-10
2.6050420168067226E-5     1.1006340311266306E-10
2.6470588235294115E-5     1.0998708902146892E-10
2.6890756302521005E-5     1.09909591138227E-10
2.7310924369747895E-5     1.0983091794216968E-10
2.7731092436974788E-5     1.0975106943329689E-10
2.8151260504201674E-5     1.0967004561160869E-10
2.8571428571428567E-5     1.0958784647710508E-10
2.899159663865546E-5      1.0950447202978603E-10
2.941176470588235E-5      1.0941992226965154E-10
2.983193277310924E-5      1.0933420217336975E-10
3.025210084033613E-5      1.0924732087913186E-10
3.067226890756302E-5      1.0915927838693777E-10
3.109243697478991E-5      1.090700746967876E-10
3.1512605042016806E-5     1.0897970980868131E-10
3.1932773109243696E-5     1.0888818372261887E-10
3.2352941176470585E-5     1.0879549643860029E-10
3.2773109243697475E-5     1.0870165362576303E-10
3.3193277310924365E-5     1.0860666507005791E-10
3.3613445378151255E-5     1.0851053077148493E-10
3.4033613445378144E-5     1.0841325073004411E-10
3.445378151260504E-5      1.0831482494573545E-10
3.487394957983193E-5      1.0821525341855893E-10
3.529411764705882E-5      1.0811453614851456E-10
3.571428571428571E-5      1.0801267948923229E-10
3.61344537815126E-5       1.07909693862399E-10
3.6554621848739496E-5     1.0780557926801467E-10
3.697478991596638E-5      1.0770033570607937E-10
3.7394957983193276E-5     1.0759396317659304E-10
3.781512605042017E-5      1.074864616795557E-10
3.8235294117647055E-5     1.0737783121496736E-10
3.8655462184873945E-5     1.0726807881208717E-10
3.907563025210084E-5      1.0715721551549508E-10
3.949579831932773E-5      1.0704524132519097E-10
3.991596638655462E-5      1.0693215624117492E-10
4.033613445378151E-5      1.0681796026344694E-10
4.075630252100841E-5      1.0670265339200697E-10
4.11764705882353E-5       1.0658623562685507E-10
4.1596638655462194E-5     1.064687146631439E-10
4.2016806722689084E-5     1.0635010215470583E-10
4.2436974789915967E-5     1.0623039810154078E-10
4.285714285714286E-5      1.0610960250364883E-10
4.327731092436975E-5      1.0598771536102996E-10
4.369747899159664E-5      1.0586473667368416E-10
4.411764705882353E-5      1.0574066644161142E-10
4.453781512605042E-5      1.0561551301526229E-10
4.495798319327731E-5      1.0548928864330332E-10
4.53781512605042E-5       1.0536199332573439E-10
4.5798319327731085E-5     1.0523362706255564E-10
4.621848739495798E-5      1.0510418985376701E-10
4.6638655462184864E-5     1.0497368169936845E-10
4.7058823529411754E-5     1.0484210259936004E-10
4.747899159663865E-5      1.0470946154805724E-10
4.789915966386554E-5      1.0457577137378228E-10
4.831932773109242E-5      1.0444103207653506E-10
4.873949579831932E-5      1.0430524365631566E-10
4.915966386554621E-5      1.041684061131241E-10
4.95798319327731E-5       1.040305194469603E-10
4.999999999999999E-5      1.0389158365782429E-10
5.042016806722688E-5      1.0375160837162654E-10
5.0840336134453775E-5     1.0361060698044056E-10
5.1260504201680665E-5     1.0346857948426629E-10
5.1680672268907555E-5     1.0332552588310379E-10
5.210084033613445E-5      1.0318144617695307E-10
5.252100840336134E-5      1.0303634036581405E-10
5.294117647058823E-5      1.028902084496868E-10
5.336134453781512E-5      1.0274306067300877E-10
5.378151260504201E-5      1.0259491097497937E-10
5.420168067226891E-5      1.0244575935559849E-10
5.462184873949579E-5      1.0229560581486627E-10
5.5042016806722686E-5     1.0214445035278262E-10
5.546218487394958E-5      1.0199229296934758E-10
5.5882352941176466E-5     1.0183913366456113E-10
5.6302521008403355E-5     1.016849832875337E-10
5.6722689075630245E-5     1.0152985630728306E-10
5.714285714285714E-5      1.0137375272380916E-10
5.7563025210084025E-5     1.0121667253711204E-10
5.798319327731092E-5      1.010586157471917E-10
5.840336134453782E-5      1.0089958235404813E-10
5.88235294117647E-5       1.0073957235768132E-10
5.92436974789916E-5       1.0057859719725315E-10
5.966386554621848E-5      1.0041667185363323E-10
6.008403361344538E-5      1.0025379632682145E-10
6.050420168067226E-5      1.0008997061681792E-10
6.0924369747899156E-5     9.992519472362258E-11
6.134453781512605E-5      9.975946864723543E-11
6.176470588235294E-5      9.959279238765652E-11
6.218487394957983E-5      9.942517795873313E-11
6.260504201680672E-5      9.925664083459026E-11
6.302521008403361E-5      9.908718101522784E-11
6.34453781512605E-5       9.891679850064591E-11
6.386554621848739E-5      9.874549329084448E-11
6.428571428571429E-5      9.857326538582354E-11
6.470588235294117E-5      9.840011478558305E-11
6.512605042016805E-5      9.822605406256951E-11
6.554621848739495E-5      9.80510991649668E-11
6.596638655462185E-5      9.787525009277483E-11
6.638655462184873E-5      9.769850684599371E-11
6.680672268907563E-5      9.752086942462339E-11
6.722689075630252E-5      9.734233782866386E-11
6.76470588235294E-5       9.716291205811513E-11
6.806722689075629E-5      9.698260522724111E-11
6.848739495798319E-5      9.680143373852047E-11
6.890756302521008E-5      9.661939759195312E-11
6.932773109243696E-5      9.643649678753917E-11
6.974789915966386E-5      9.625273132527858E-11
7.016806722689076E-5      9.606810120517131E-11
7.058823529411764E-5      9.588260642721741E-11
7.100840336134452E-5      9.56962606300482E-11
7.142857142857142E-5      9.550908065013868E-11
7.184873949579832E-5      9.532106648748882E-11
7.22689075630252E-5       9.513221814209871E-11
7.26890756302521E-5       9.494253561396824E-11
7.310924369747899E-5      9.475201890309748E-11
7.352941176470588E-5      9.456066800948641E-11
7.394957983193276E-5      9.436849707804543E-11
7.436974789915967E-5      9.417552335844764E-11
7.478991596638655E-5      9.398174685069297E-11
7.521008403361343E-5      9.378716755478149E-11
7.563025210084034E-5      9.359178547071316E-11
7.605042016806723E-5      9.3395600598488E-11
7.647058823529412E-5      9.3198612938106E-11
7.689075630252102E-5      9.30008371220702E-11
7.73109243697479E-5       9.280229079197859E-11
7.773109243697479E-5      9.260297394783115E-11
7.815126050420167E-5      9.24028865896279E-11
7.857142857142857E-5      9.220202871736882E-11
7.899159663865546E-5      9.20004003310539E-11
7.941176470588235E-5      9.179800143068315E-11
7.983193277310923E-5      9.159484711716166E-11
8.025210084033613E-5      9.139095540222321E-11
8.067226890756302E-5      9.118632628586777E-11
8.10924369747899E-5       9.098095976809541E-11
8.151260504201682E-5      9.077485584890608E-11
8.19327731092437E-5       9.056801452829978E-11
8.23529411764706E-5       9.036043580627653E-11
8.277310924369749E-5      9.015213523282978E-11
8.319327731092437E-5      8.994313116710639E-11
8.361344537815127E-5      8.973342360910632E-11
8.403361344537815E-5      8.952301255882964E-11
8.445378151260505E-5      8.93118980162763E-11
8.487394957983195E-5      8.91000799814463E-11
8.529411764705883E-5      8.888755845433965E-11
8.571428571428573E-5      8.867434941663468E-11
8.613445378151261E-5      8.846047154861634E-11
8.655462184873949E-5      8.824592485028462E-11
8.697478991596639E-5      8.803070932163955E-11
8.739495798319329E-5      8.78148249626811E-11
8.781512605042018E-5      8.75982717734093E-11
8.823529411764706E-5      8.738104975382411E-11
8.865546218487395E-5      8.716317531360003E-11
8.907563025210084E-5      8.694466740877644E-11
8.949579831932774E-5      8.67255260393533E-11
8.991596638655461E-5      8.650575120533066E-11
9.033613445378152E-5      8.628534290670848E-11
9.075630252100842E-5      8.606430114348679E-11
9.11764705882353E-5       8.584262591566558E-11
9.15966386554622E-5       8.562033413987651E-11
9.201680672268908E-5      8.539744489216153E-11
9.243697478991596E-5      8.517395817252063E-11
9.285714285714286E-5      8.494987398095381E-11
9.327731092436976E-5      8.472519231746109E-11
9.369747899159665E-5      8.449991318204246E-11
9.411764705882353E-5      8.427403657469791E-11
9.453781512605042E-5      8.404758047617123E-11
9.495798319327731E-5      8.38205632877781E-11
9.53781512605042E-5       8.359298500951844E-11
9.57983193277311E-5       8.336484564139231E-11
9.621848739495799E-5      8.313614518339972E-11
9.663865546218487E-5      8.290688363554063E-11
9.705882352941177E-5      8.267706099781506E-11
9.747899159663867E-5      8.244669775149513E-11
9.789915966386555E-5      8.2215810577885E-11
9.831932773109245E-5      8.198439947698462E-11
9.873949579831933E-5      8.175246444879408E-11
9.915966386554623E-5      8.152000549331332E-11
9.957983193277312E-5      8.128702261054234E-11
1.0E-4                    8.105351580048115E-11
1.004264392324094E-4      8.081600406394502E-11
1.0085287846481877E-4     8.057799326481582E-11
1.0127931769722815E-4     8.033948340309354E-11
1.0170575692963754E-4     8.010047447877816E-11
1.0213219616204692E-4     7.986096649186975E-11
1.025586353944563E-4      7.962095944236823E-11
1.0298507462686569E-4     7.938045333027365E-11
1.0341151385927508E-4     7.913946064328392E-11
1.0383795309168445E-4     7.889800847103197E-11
1.0426439232409383E-4     7.865609681351775E-11
1.0469083155650321E-4     7.841372567074128E-11
1.0511727078891259E-4     7.81708950427026E-11
1.0554371002132197E-4     7.792760492940162E-11
1.0597014925373135E-4     7.768385533083843E-11
1.0639658848614073E-4     7.743966330453477E-11
1.0682302771855012E-4     7.719505167033748E-11
1.0724946695095948E-4     7.695002042824654E-11
1.0767590618336888E-4     7.670456957826198E-11
1.0810234541577824E-4     7.645869912038377E-11
1.0852878464818763E-4     7.621240905461191E-11
1.0895522388059701E-4     7.596569938094643E-11
1.093816631130064E-4      7.571858918398524E-11
1.0980810234541578E-4     7.547110007231814E-11
1.1023454157782515E-4     7.52232320459451E-11
1.1066098081023454E-4     7.497498510486616E-11
1.1108742004264393E-4     7.472635924908133E-11
1.115138592750533E-4      7.447735447859054E-11
1.1194029850746269E-4     7.422797079339384E-11
1.1236673773987208E-4     7.397822782452782E-11
1.1279317697228145E-4     7.372814703240254E-11
1.1321961620469083E-4     7.347772841701797E-11
1.1364605543710021E-4     7.322697197837411E-11
1.1407249466950959E-4     7.297587771647103E-11
1.1449893390191897E-4     7.272444563130862E-11
1.1492537313432836E-4     7.247267572288696E-11
1.1535181236673775E-4     7.222058788027949E-11
1.1577825159914712E-4     7.196820358395568E-11
1.162046908315565E-4      7.171552283391548E-11
1.1663113006396588E-4     7.146254563015894E-11
1.1705756929637526E-4     7.12092719726861E-11
1.1748400852878464E-4     7.095570186149685E-11
1.1791044776119402E-4     7.070183529659126E-11
1.1833688699360342E-4     7.044769234938306E-11
1.187633262260128E-4      7.019329452582105E-11
1.1918976545842218E-4     6.993864182590521E-11
1.1961620469083157E-4     6.968373424963552E-11
1.2004264392324095E-4     6.942857179701205E-11
1.2046908315565034E-4     6.917315446803473E-11
1.2089552238805972E-4     6.891748226270359E-11
1.2132196162046911E-4     6.866157539740269E-11
1.2174840085287848E-4     6.840545537951775E-11
1.2217484008528786E-4     6.814912220904876E-11
1.2260127931769724E-4     6.789257588599572E-11
1.2302771855010662E-4     6.763581641035867E-11
1.23454157782516E-4       6.737884378213755E-11
1.2388059701492538E-4     6.71216580013324E-11
1.2430703624733477E-4     6.686427939846023E-11
1.2473347547974415E-4     6.66067294531046E-11
1.2515991471215353E-4     6.634900816526553E-11
1.255863539445629E-4      6.609111553494299E-11
1.260127931769723E-4      6.583305156213703E-11
1.2643923240938167E-4     6.55748162468476E-11
1.2686567164179105E-4     6.531640958907472E-11
1.2729211087420043E-4     6.505785200360143E-11
1.2771855010660981E-4     6.479916491207882E-11
1.281449893390192E-4      6.454034831450688E-11
1.2857142857142858E-4     6.428140221088563E-11
1.2899786780383796E-4     6.402232660121507E-11
1.2942430703624734E-4     6.376312148549517E-11
1.2985074626865672E-4     6.350378686372598E-11
1.302771855010661E-4      6.324434320513981E-11
1.3070362473347548E-4     6.298481184321095E-11
1.3113006396588486E-4     6.27251927779394E-11
1.3155650319829424E-4     6.246548600932514E-11
1.3198294243070362E-4     6.22056915373682E-11
1.32409381663113E-4       6.194580936206855E-11
1.3283582089552239E-4     6.168583948342622E-11
1.3326226012793177E-4     6.142580239523227E-11
1.3368869936034115E-4     6.116571931260073E-11
1.3411513859275053E-4     6.09055902355316E-11
1.345415778251599E-4      6.064541516402486E-11
1.349680170575693E-4      6.038519409808058E-11
1.3539445628997867E-4     6.012492703769868E-11
1.3582089552238805E-4     5.98646139828792E-11
1.3624733475479743E-4     5.96042754220195E-11
1.3667377398720682E-4     5.934393242181731E-11
1.371002132196162E-4      5.908358498227267E-11
1.3752665245202558E-4     5.882323310338555E-11
1.3795309168443496E-4     5.8562876785156E-11
1.3837953091684434E-4     5.830251602758395E-11
1.3880597014925372E-4     5.804215083066946E-11
1.392324093816631E-4      5.778180164744744E-11
1.3965884861407248E-4     5.752148936631414E-11
1.4008528784648186E-4     5.726121398726961E-11
1.4051172707889124E-4     5.7000975510313806E-11
1.4093816631130063E-4     5.674077393544677E-11
1.4136460554371E-4        5.6480609262668455E-11
1.417910447761194E-4      5.62204814919789E-11
1.422174840085288E-4      5.5960411011107037E-11
1.4264392324093815E-4     5.5700418500478574E-11
1.4307036247334753E-4     5.544050396009349E-11
1.4349680170575694E-4     5.518066738995183E-11
1.4392324093816635E-4     5.492090879005357E-11
1.443496801705757E-4      5.466122816039869E-11
1.447761194029851E-4      5.440162550098722E-11
1.452025586353945E-4      5.4142121104366596E-11
1.4562899786780387E-4     5.388273541358024E-11
1.4605543710021325E-4     5.36234684286281E-11
1.4648187633262263E-4     5.3364320149510204E-11
1.4690831556503201E-4     5.3105290576226584E-11
1.473347547974414E-4      5.284637970877717E-11
1.4776119402985075E-4     5.258758754716203E-11
1.4818763326226013E-4     5.232893425898538E-11
1.486140724946695E-4      5.207044002079458E-11
1.490405117270789E-4      5.181210483258963E-11
1.4946695095948827E-4     5.1553928694370547E-11
1.4989339019189766E-4     5.129591160613733E-11
1.5031982942430704E-4     5.103805356788995E-11
1.5074626865671642E-4     5.078035457962843E-11
1.511727078891258E-4      5.052283465440206E-11
1.5159914712153518E-4     5.026551367349005E-11
1.5202558635394456E-4     5.000839163689238E-11
1.5245202558635394E-4     4.9751468544609076E-11
1.5287846481876332E-4     4.949474439664014E-11
1.533049040511727E-4      4.923821919298554E-11
1.5373134328358208E-4     4.898189293364531E-11
1.5415778251599147E-4     4.872578544770285E-11
1.5458422174840087E-4     4.8469916292771174E-11
1.5501066098081023E-4     4.821428546885026E-11
1.5543710021321964E-4     4.795889297594012E-11
1.5586353944562902E-4     4.7703738814040784E-11
1.5628997867803837E-4     4.744882298315219E-11
1.5671641791044778E-4     4.719414548327439E-11
1.5714285714285716E-4     4.693972593035325E-11
1.5756929637526654E-4     4.6685583530355715E-11
1.5799573560767592E-4     4.6431718283281796E-11
1.584221748400853E-4      4.617813018913148E-11
1.5884861407249468E-4     4.5924819247904793E-11
1.5927505330490407E-4     4.56717854596017E-11
1.5970149253731345E-4     4.541902882422223E-11
1.6012793176972283E-4     4.5166568715682295E-11
1.605543710021322E-4      4.491442396077714E-11
1.609808102345416E-4      4.466259455950677E-11
1.6140724946695097E-4     4.441108051187118E-11
1.6183368869936035E-4     4.4159881817870386E-11
1.6226012793176973E-4     4.3908998477504365E-11
1.6268656716417911E-4     4.365843049077313E-11
1.631130063965885E-4      4.3408196960990435E-11
1.6353944562899788E-4     4.3158316308745383E-11
1.6396588486140726E-4     4.2908788534037945E-11
1.6439232409381664E-4     4.265961363686814E-11
1.6481876332622602E-4     4.2410791617235985E-11
1.652452025586354E-4      4.2162322475141445E-11
1.6567164179104478E-4     4.1914206210584544E-11
1.6609808102345416E-4     4.1666461628063656E-11
1.6652452025586354E-4     4.141910671545454E-11
1.6695095948827292E-4     4.11721414727572E-11
1.673773987206823E-4      4.092556589997163E-11
1.6780383795309169E-4     4.0679379997097836E-11
1.6823027718550107E-4     4.043358376413581E-11
1.6865671641791045E-4     4.0188177201085565E-11
1.6908315565031983E-4     3.994317878581512E-11
1.695095948827292E-4      3.969860604754122E-11
1.699360341151386E-4      3.945445898626388E-11
1.7036247334754797E-4     3.921073760198309E-11
1.7078891257995735E-4     3.8967441894698854E-11
1.7121535181236673E-4     3.8724571864411164E-11
1.7164179104477612E-4     3.848212751112003E-11
1.720682302771855E-4      3.824012695868469E-11
1.7249466950959488E-4     3.7998587252311946E-11
1.7292110874200426E-4     3.7757508392001794E-11
1.7334754797441364E-4     3.751689037775423E-11
1.7377398720682302E-4     3.7276733209569265E-11
1.742004264392324E-4      3.703703688744689E-11
1.7462686567164178E-4     3.6797801411387106E-11
1.7505330490405116E-4     3.655904452433457E-11
1.7547974413646055E-4     3.632078276276324E-11
1.7590618336886993E-4     3.6083016126673117E-11
1.763326226012793E-4      3.584574461606421E-11
1.767590618336887E-4      3.5608968230936515E-11
1.7718550106609807E-4     3.5372686971290025E-11
1.7761194029850745E-4     3.513690083712475E-11
1.7803837953091683E-4     3.4901627164072754E-11
1.784648187633262E-4      3.4666881955812184E-11
1.788912579957356E-4      3.4432665212343026E-11
1.7931769722814497E-4     3.419897693366529E-11
1.7974413646055436E-4     3.396581711977899E-11
1.8017057569296374E-4     3.373318577068409E-11
1.8059701492537312E-4     3.350108288638063E-11
1.810234541577825E-4      3.3269525369334084E-11
1.8144989339019188E-4     3.3038528667052366E-11
1.8187633262260126E-4     3.280809277953546E-11
1.8230277185501064E-4     3.2578217706783386E-11
1.8272921108742002E-4     3.234890344879614E-11
1.831556503198294E-4      3.21201500055737E-11
1.8358208955223879E-4     3.189195737711609E-11
1.8400852878464817E-4     3.1664342007445514E-11
1.8443496801705755E-4     3.143731876524342E-11
1.8486140724946693E-4     3.1210887650509816E-11
1.852878464818763E-4      3.098504866324471E-11
1.857142857142857E-4      3.0759801803448103E-11
1.8614072494669507E-4     3.053514707111998E-11
1.8656716417910445E-4     3.0311084466260355E-11
1.8699360341151383E-4     3.008762994978076E-11
1.8742004264392321E-4     2.986479778962607E-11
1.878464818763326E-4      2.964258798579626E-11
1.8827292110874198E-4     2.9421000538291347E-11
1.8869936034115136E-4     2.920003544711134E-11
1.8912579957356074E-4     2.8979692712256222E-11
1.8955223880597012E-4     2.8759972333726E-11
1.899786780383795E-4      2.8540889765295966E-11
1.904051172707889E-4      2.8322458653035648E-11
1.9083155650319826E-4     2.8104678996945023E-11
1.9125799573560764E-4     2.788755079702412E-11
1.9168443496801702E-4     2.7671074053272938E-11
1.9211087420042643E-4     2.7455248765691445E-11
1.9253731343283581E-4     2.7240074934279672E-11
1.929637526652452E-4      2.7025567482322365E-11
1.9339019189765455E-4     2.6811739413671698E-11
1.9381663113006393E-4     2.6598590728327664E-11
1.942430703624733E-4      2.638612142629027E-11
1.9466950959488272E-4     2.6174331507559524E-11
1.9509594882729207E-4     2.5963220972135398E-11
1.9552238805970145E-4     2.575278982001792E-11
1.9594882729211084E-4     2.554305242134751E-11
1.9637526652452024E-4     2.53340211182374E-11
1.968017057569296E-4      2.5125695910687598E-11
1.97228144989339E-4       2.49180767986981E-11
1.9765458422174841E-4     2.471116378226891E-11
1.980810234541578E-4      2.450495686140002E-11
1.9850746268656718E-4     2.4299456036091437E-11
1.9893390191897656E-4     2.4094675101411905E-11
1.9936034115138594E-4     2.3890625719057334E-11
1.9978678038379532E-4     2.3687307889027712E-11
2.002132196162047E-4      2.348472161132305E-11
2.0063965884861408E-4     2.3282866885943348E-11
2.0106609808102346E-4     2.3081743712888593E-11
2.0149253731343284E-4     2.28813520921588E-11
2.0191897654584222E-4     2.268170522258125E-11
2.023454157782516E-4      2.24828140676155E-11
2.0277185501066093E-4     2.228467862726155E-11
2.0319829424307034E-4     2.20872989015194E-11
2.0362473347547972E-4     2.1890674890389066E-11
2.0405117270788908E-4     2.169480659387052E-11
2.0447761194029846E-4     2.1499694011963783E-11
2.0490405117270784E-4     2.1305349726863226E-11
2.0533049040511725E-4     2.1111783986855807E-11
2.057569296375266E-4      2.0918996791941522E-11
2.06183368869936E-4       2.0726988142120385E-11
2.0660980810234542E-4     2.0535758037392388E-11
2.070362473347548E-4      2.0345306477757525E-11
2.0746268656716418E-4     2.0155633463215806E-11
2.0788912579957356E-4     1.9966750939739817E-11
2.0831556503198294E-4     1.9778668424406137E-11
2.087420042643923E-4      1.9591385917214775E-11
2.091684434968017E-4      1.9404903418165735E-11
2.0959488272921106E-4     1.9219220927259012E-11
2.1002132196162044E-4     1.9034338444494602E-11
2.1044776119402982E-4     1.8850255969872512E-11
2.108742004264392E-4      1.8666984794380093E-11
2.1130063965884858E-4     1.8484533688759934E-11
2.1172707889125793E-4     1.830290265301204E-11
2.1215351812366734E-4     1.8122091687136408E-11
2.1257995735607672E-4     1.794210079113304E-11
2.130063965884861E-4      1.7762929965001933E-11
2.1343283582089549E-4     1.758457920874309E-11
2.1385927505330487E-4     1.740705914044079E-11
2.1428571428571422E-4     1.7230377770308274E-11
2.147121535181236E-4      1.705453509834553E-11
2.1513859275053298E-4     1.6879531124552577E-11
2.155650319829424E-4      1.6705365848929407E-11
2.1599147121535174E-4     1.6532039271476015E-11
2.1641791044776113E-4     1.635955139219241E-11
2.168443496801705E-4      1.6187912139207167E-11
2.172707889125799E-4      1.6017128748948972E-11
2.1769722814498927E-4     1.5847201221417828E-11
2.1812366737739865E-4     1.567812955661374E-11
2.1855010660980803E-4     1.5509913754536708E-11
2.1897654584221744E-4     1.5342553815186716E-11
2.1940298507462682E-4     1.5176049738563784E-11
2.1982942430703623E-4     1.501041074667036E-11
2.2025586353944558E-4     1.4845643289847018E-11
2.2068230277185494E-4     1.4681747368093768E-11
2.2110874200426437E-4     1.4518722981410607E-11
2.2153518123667375E-4     1.4356570129797539E-11
2.2196162046908313E-4     1.4195288813254556E-11
2.2238805970149251E-4     1.4034879031781663E-11
2.228144989339019E-4      1.3875349285982892E-11
2.2324093816631128E-4     1.371670522876765E-11
2.2366737739872063E-4     1.3558946860135936E-11
2.2409381663113E-4        1.3402074180087753E-11
2.245202558635394E-4      1.3246087188623104E-11
2.2494669509594877E-4     1.309098588574198E-11
2.2537313432835815E-4     1.2936770271444389E-11
2.2579957356076756E-4     1.278344811057683E-11
2.2622601279317692E-4     1.263102424824152E-11
2.2665245202558627E-4     1.2479498684438448E-11
2.270788912579957E-4      1.2328871419167622E-11
2.275053304904051E-4      1.2179142452429043E-11
2.2793176972281447E-4     1.2030311784222701E-11
2.2835820895522385E-4     1.1882379414548603E-11
2.2878464818763323E-4     1.1735352359061599E-11
2.292110874200426E-4      1.1589234645654885E-11
2.29637526652452E-4       1.1444026274328457E-11
2.3006396588486137E-4     1.1299727245082319E-11
2.3049040511727075E-4     1.1156337557916475E-11
2.3091684434968014E-4     1.1013857212830912E-11
2.3134328358208952E-4     1.0872286209825642E-11
2.3176972281449892E-4     1.0731630802864056E-11
2.3219616204690828E-4     1.0591894194206948E-11
2.3262260127931766E-4     1.0453076383854317E-11
2.3304904051172707E-4     1.0315177371806165E-11
2.3347547974413645E-4     1.0178197158062494E-11
2.3390191897654586E-4     1.0042135742623297E-11
2.3432835820895524E-4     9.90699312548858E-12
2.3475479744136462E-4     9.772774787379933E-12
2.3518123667377397E-4     9.639483097477964E-12
2.3560767590618333E-4     9.507118055782676E-12
2.3603411513859274E-4     9.375679662294067E-12
2.364605543710021E-4      9.245167917012142E-12
2.3688699360341147E-4     9.11558281993689E-12
2.3731343283582085E-4     8.986924371068324E-12
2.3773987206823026E-4     8.859197267287113E-12
2.381663113006396E-4      8.732403038228037E-12
2.38592750533049E-4       8.606541683891091E-12
2.390191897654584E-4      8.481613204276282E-12
2.3944562899786778E-4     8.357617599383607E-12
2.3987206823027716E-4     8.234554869213064E-12
2.4029850746268655E-4     8.112425013764656E-12
2.4072494669509595E-4     7.991231936438295E-12
2.4115138592750533E-4     7.87097632183481E-12
2.415778251599147E-4      7.751658169954196E-12
2.420042643923241E-4      7.63327748079646E-12
2.4243070362473348E-4     7.515834254361598E-12
2.4285714285714283E-4     7.399328490649609E-12
2.432835820895522E-4      7.283760189660495E-12
2.4371002132196162E-4     7.169132452637529E-12
2.44136460554371E-4       7.055445114633989E-12
2.445628997867804E-4      6.942698175649881E-12
2.4498933901918976E-4     6.830891635685198E-12
2.4541577825159915E-4     6.720025494739948E-12
2.458422174840085E-4      6.610099752814124E-12
2.462686567164179E-4      6.50111440990773E-12
2.466950959488273E-4      6.3930717573968746E-12
2.4712153518123667E-4     6.28597077724413E-12
2.47547974413646E-4       6.179811469449496E-12
2.4797441364605543E-4     6.074593834012973E-12
2.4840085287846476E-4     5.970317870934564E-12
2.4882729211087414E-4     5.866983580214263E-12
2.492537313432835E-4      5.764590961852075E-12
2.496801705756929E-4      5.663141490612276E-12
2.501066098081023E-4      5.562633292786929E-12
2.5053304904051166E-4     5.463066368376031E-12
2.5095948827292104E-4     5.3644407173795874E-12
2.513859275053304E-4      5.266756339797596E-12
2.518123667377398E-4      5.170013235630053E-12
2.522388059701492E-4      5.074211404876964E-12
2.5266524520255857E-4     4.9793514999131685E-12
2.5309168443496795E-4     4.885430789733192E-12
2.5351812366737733E-4     4.792449274337034E-12
2.5394456289978677E-4     4.700406953724695E-12
2.543710021321961E-4      4.609303827896177E-12
2.5479744136460553E-4     4.519139896851476E-12
2.552238805970149E-4      4.429915160590595E-12
2.556503198294243E-4      4.341629444283225E-12
2.560767590618336E-4      4.254279158944092E-12
2.56503198294243E-4       4.167864304573198E-12
2.569296375266524E-4      4.082384881170543E-12
2.5735607675906176E-4     3.9978408887361265E-12
2.5778251599147114E-4     3.914232327269947E-12
2.582089552238805E-4      3.8315591967720075E-12
2.586353944562899E-4      3.749820491348398E-12
2.590618336886993E-4      3.669011764284337E-12
2.5948827292110867E-4     3.589133015579824E-12
2.599147121535181E-4      3.5101842452348568E-12